/*--------------------------------*- C++ -*----------------------------------*\
| =========                 |                                                 |
| \\      /  F ield         | OpenFOAM: The Open Source CFD Toolbox           |
|  \\    /   O peration     | Version:  2106                                  |
|   \\  /    A nd           | Website:  www.openfoam.com                      |
|    \\/     M anipulation  |                                                 |
\*---------------------------------------------------------------------------*/
FoamFile
{
    version     2.0;
    format      ascii;
    arch        "LSB;label=32;scalar=64";
    class       volScalarField;
    location    "2";
    object      alpha.water;
}
// * * * * * * * * * * * * * * * * * * * * * * * * * * * * * * * * * * * * * //

dimensions      [0 0 0 0 0 0 0];

internalField   nonuniform List<scalar> 
6000
(
0
0
0
0
0
0
0
0
0
0
0
0
0
0
0
0
0
0
0
0
0
0
0
0
0
0
0
0
0
0
0
0
0
0
0
0
0
0
0
0
0
0
0
0
0
0
0
0
0
0
0
0
0
0
0
0
0
0
0
0
0
0
0
0
0
0
0
0
0
0
0
0
0
0
0
0
0
0
0
0
0
0
0
0
0
0
0
0
0
0
0
0
0
0
0
0
0
0
0
0
0
0
0
0
0
0
0
0
0
0
0
0
0
0
0
0
0
0
0
0
0
0
0
0
0
0
0
0
0
0
0
0
0
0
0
0
0
0
0
0
0
0
0
0
0
0
0
0
0
0
0
0
0
0
0
0
0
0
0
0
0
0
0
0
0
0
0
0
0
0
0
0
0
0
0
0
0
0
0
0
0
0
0
0
0
0
0
0
0
0
0
0
0
0
0
0
0
0
0
0
0
0
0
0
0
0
0
0
0
0
0
0
0
0
0
0
0
0
0
0
0
0
0
0
0
0
0
0
0
0
0
0
0
0
0
0
0
0
0
0
0
0
0
0
0
0
0
0
0
0
0
0
0
0
0
0
0
0
0
0
0
0
0
0
0
0
0
0
0
0
0
0
0
0
0
0
0
0
0
0
0
0
0
0
0
0
0
0
0
0
0
0
0
0
0
0
0
0
0
0
0
0
0
0
0
0
0
0
0
0
0
0
0
0
0
0
0
0
0
0
0
0
0
0
0
0
0
0
0
0
0
0
0
0
0
0
0
0
0
0
0
0
0
0
0
0
0
0
0
0
0
0
0
0
0
0
0
0
0
0
0
0
0
0
0
0
0
0
0
0
0
0
0
0
0
0
0
0
0
0
0
0
0
0
0
0
0
0
0
0
0
0
0
0
0
0
0
0
0
0
0
0
0
0
0
0
0
0
0
0
0
0
0
0
0
0
0
0
0
0
0
0
0
0
0
0
0
0
0
0
0
0
0
0
0
0
0
0
0
0
0
0
0
0
0
0
0
0
0
0
0
0
0
0
0
0
0
0
0
0
0
0
0
0
0
0
0
0
0
0
0
0
0
0
0
0
0
0
0
0
0
0
0
0
0
0
0
0
0
0
0
0
0
0
0
0
0
0
0
0
0
0
0
0
0
0
0
-5.5807889639706e-95
2.4329380251605e-90
1.0070432446853e-87
2.0439751618627e-85
1.2898042951907e-82
4.5170027262697e-80
8.9255466574376e-78
1.1846822637022e-75
1.1666962863819e-73
9.0497877759176e-72
5.7491194129539e-70
3.0739738133814e-68
1.4113824903799e-66
5.6504268368823e-65
1.9963257473202e-63
6.2848186435286e-62
1.7770591321617e-60
4.5427004295388e-59
1.0556747403781e-57
2.2407218295825e-56
4.3614494512157e-55
7.811940722592e-54
1.2914236892896e-52
1.9755319915458e-51
2.8027240780603e-50
3.6949122062442e-49
4.5340746067787e-48
5.1864066265384e-47
5.5370701837495e-46
5.5231797656777e-45
5.1520349967478e-44
4.4974235895269e-43
3.6761518679862e-42
2.8148471361199e-41
2.0196458276765e-40
1.3580755907988e-39
8.5588080216266e-39
5.0547404839182e-38
2.7969152464501e-37
1.4494233488443e-36
7.0311711071385e-36
3.1907693500266e-35
1.353480570409e-34
5.3614418253225e-34
1.9810417273815e-33
6.8189369314929e-33
2.1831856716881e-32
6.4901912880123e-32
1.7879260552676e-31
4.5538198902813e-31
1.0695595170528e-30
2.3096385502758e-30
4.5699632602946e-30
8.2529753615474e-30
1.354177101177e-29
2.0083084391462e-29
2.6755524082299e-29
3.178954634593e-29
3.3396139870903e-29
3.0698357538872e-29
2.4375542740606e-29
1.6450086737386e-29
9.2383219949741e-30
4.195635036708e-30
1.4787023015431e-30
3.7901532237302e-31
6.2770182779098e-32
5.0312679611358e-33
0
0
0
0
0
0
0
0
0
0
0
0
0
0
0
0
0
0
0
0
0
0
0
0
0
0
0
0
0
0
0
0
-1.2802770555384e-92
4.7088754496575e-88
1.9180948570999e-85
2.6677003671075e-82
1.2418839815861e-79
-9.5268687893708e-76
-3.8560892585067e-73
-7.5664721367107e-71
-9.6993673478353e-69
-9.1522440222777e-67
-6.7822971233688e-65
-4.1112137961411e-63
-2.0962168517289e-61
-9.1748295619771e-60
-3.5006365226188e-58
-1.178471337912e-56
-3.5343538029255e-55
-9.5180179886982e-54
-2.3166942764298e-52
-5.1245890307134e-51
-1.0349868600998e-49
-1.9160947632966e-48
-3.2627332947959e-47
-5.1250671011551e-46
-7.4450492073357e-45
-1.002379641147e-43
-1.2531683199027e-42
-1.4571343677203e-41
-1.5779759597728e-40
-1.5933688154698e-39
-1.5016438398027e-38
-1.3218833622576e-37
-1.0875821796027e-36
-8.3670243504465e-36
-6.0207423468633e-35
-4.0528798971201e-34
-2.5521850880879e-33
-1.5032486955054e-32
-8.2792272777115e-32
-4.2617889978555e-31
-2.0491332751039e-30
-9.19568002856e-30
-3.8478087977168e-29
-1.499528420766e-28
-5.4351323409727e-28
-1.8292768332191e-27
-5.7062003122834e-27
-1.6461390780498e-26
-4.3806812886889e-26
-1.0722643698374e-25
-2.4058669456198e-25
-4.928680197363e-25
-9.1761921957744e-25
-1.5441376060628e-24
-2.3332574076013e-24
-3.1410039436353e-24
-3.7308806923191e-24
-3.8633296965739e-24
-3.4343050028453e-24
-2.5682639409151e-24
-1.571359220007e-24
-7.5537092911396e-25
-2.6756012900882e-25
-6.211376491332e-26
-7.115358794337e-27
-2.2405955736188e-29
-7.75165940237e-30
-1.0767191275145e-30
0
0
0
0
0
0
0
0
0
0
0
0
0
0
0
0
0
0
0
0
0
0
0
0
0
0
0
0
0
0
4.680066274047e-94
1.8493635569028e-91
3.7204942750875e-89
5.033835379486e-86
1.8548590112393e-83
4.8948827936339e-80
-1.2063596812795e-76
-2.4694282063057e-73
-8.6517380180307e-71
-1.594348191158e-68
-1.9610495124865e-66
-1.790927347802e-64
-1.2899231456304e-62
-7.6170067798223e-61
-3.7882581402074e-59
-1.6184860528191e-57
-6.0302361147171e-56
-1.9826810764466e-54
-5.8075363925826e-53
-1.5273117836224e-51
-3.62962376007e-50
-7.8369105875675e-49
-1.5444318337577e-47
-2.7888887829172e-46
-4.6300710079459e-45
-7.0874454693456e-44
-1.0028027105371e-42
-1.3142962886769e-41
-1.5985291690177e-40
-1.8070871929281e-39
-1.901284211043e-38
-1.8638397630733e-37
-1.7039690921127e-36
-1.4538659754285e-35
-1.1583480227432e-34
-8.621371745815e-34
-5.9956652845749e-33
-3.896323830517e-32
-2.3658905891705e-31
-1.3420025757518e-30
-7.1081839459686e-30
-3.5137112953843e-29
-1.6197780579431e-28
-6.9570726670027e-28
-2.780943866376e-27
-1.0331688281536e-26
-3.5618723006009e-26
-1.137395658047e-25
-3.3568926204858e-25
-9.1342232086818e-25
-2.2848340977172e-24
-5.2362627650869e-24
-1.0951193044302e-23
-2.0804982388147e-23
-3.5708089761137e-23
-5.5008387630239e-23
-7.5463693424316e-23
-9.1308128966664e-23
-9.6276652129558e-23
-8.7116303381124e-23
-6.6290346555203e-23
-4.125680677334e-23
-2.0168170908603e-23
-7.2632022570633e-24
-1.7144864777914e-24
-2.0007146205164e-25
-8.5648600644028e-28
-2.6208048965602e-28
-3.4956237840003e-29
0
0
0
0
0
0
0
0
0
0
0
0
0
0
0
0
0
0
0
0
0
0
0
0
0
0
0
0
0
0
0
9.5873053153113e-92
3.7234111649129e-89
7.5414576416617e-87
3.8637797857407e-84
1.2120820575835e-81
-1.0014567355716e-76
-6.5495451620262e-74
-3.69846441852e-71
-1.0269466898728e-68
-1.7192168578111e-66
-1.9985210687302e-64
-1.7522776993292e-62
-1.2207863312993e-60
-7.0004589747065e-59
-3.3885319024135e-57
-1.410797249038e-55
-5.1260805239933e-54
-1.6442149130606e-52
-4.699042776798e-51
-1.2057082378838e-49
-2.795152560181e-48
-5.8858541644841e-47
-1.1308687812374e-45
-1.9901404567438e-44
-3.2185101103185e-43
-4.7968362532076e-42
-6.604512377289e-41
-8.418221797766e-40
-9.9510958765053e-39
-1.0925808853898e-37
-1.1156433419065e-36
-1.0605919504559e-35
-9.3950062107836e-35
-7.7600509838768e-34
-5.9795225872637e-33
-4.2997618972073e-32
-2.8858094935454e-31
-1.8077338579633e-30
-1.0567491847953e-29
-5.7628148884448e-29
-2.9302390002028e-28
-1.3882883275432e-27
-6.1232920213523e-27
-2.5116041302246e-26
-9.5678586539551e-26
-3.379921449604e-25
-1.105198045215e-24
-3.3380729486789e-24
-9.2897169032672e-24
-2.3752694833014e-23
-5.5612613207435e-23
-1.1876376397271e-22
-2.3027540990611e-22
-4.0318190792818e-22
-6.3331971485333e-22
-8.8553515676908e-22
-1.091623831255e-21
-1.1722236361441e-21
-1.0798239567061e-21
-8.3620815307821e-22
-5.2945240049932e-22
-2.6323057980718e-22
-9.6391269397925e-23
-2.3135521898984e-23
-2.7487584071458e-24
-1.4244062865742e-26
-4.1296524158668e-27
-5.4114403489175e-28
0
0
0
0
0
0
0
0
0
0
0
0
0
0
0
0
0
0
0
0
0
0
0
0
0
0
0
0
0
0
0
0
9.6589799807384e-90
3.7561374112713e-87
7.6679664662045e-85
-8.2545606729156e-79
-1.843729050536e-74
-7.0298316520463e-72
-1.3277410590196e-69
-1.6611309657513e-67
-1.5592528120847e-65
-1.1792121796217e-63
-7.5198965977155e-62
-4.1648605528427e-60
-2.0401686217635e-58
-8.9311799938325e-57
-3.5135130631616e-55
-1.2460392213897e-53
-3.9927486046665e-52
-1.1585560808021e-50
-3.0514013578821e-49
-7.3136067236623e-48
-1.5994416158257e-46
-3.2000851402195e-45
-5.8725133749648e-44
-9.9084343812172e-43
-1.5405468705836e-41
-2.2116545999134e-40
-2.9371516801375e-39
-3.6141578587289e-38
-4.1264575447988e-37
-4.3769420647448e-36
-4.317575809962e-35
-3.9642364638921e-34
-3.3902283883787e-33
-2.7019330717024e-32
-2.0074810073492e-31
-1.3907339850468e-30
-8.983937807878e-30
-5.4108176743978e-29
-3.0374121890999e-28
-1.5884946419869e-27
-7.7344138814103e-27
-3.5031958419648e-26
-1.47449654724e-25
-5.7599139491267e-25
-2.085093751901e-24
-6.9823045947377e-24
-2.1583828768134e-23
-6.1440556734169e-23
-1.6059897365626e-22
-3.8419197686563e-22
-8.3788064598841e-22
-1.6582761644066e-21
-2.9622291747668e-21
-4.7452073732517e-21
-6.7634380503149e-21
-8.4954748530872e-21
-9.2920135600256e-21
-8.7151969130784e-21
-6.8693009900332e-21
-4.4254573737373e-21
-2.2380708801259e-21
-8.3345259084607e-22
-2.0342583615377e-22
-2.4602946804867e-23
-1.4615832839949e-25
-4.1186839755095e-26
-5.3607366505518e-27
0
0
0
0
0
0
0
0
0
0
0
0
0
0
0
0
0
0
0
0
0
0
0
0
0
0
0
0
0
0
0
0
0
4.105196002383e-85
1.789734089733e-82
4.091087845435e-80
-1.5419844575714e-76
-3.5965889198816e-72
-1.348777196229e-69
-2.5011435069889e-67
-3.0500140098338e-65
-2.7541533602463e-63
-1.9675526982398e-61
-1.1604105836284e-59
-5.8209029980049e-58
-2.5384566899096e-56
-9.7834120253272e-55
-3.3739101048577e-53
-1.0507924838761e-51
-2.9757382978254e-50
-7.7003464874303e-49
-1.8273216929009e-47
-3.9870368139404e-46
-8.0147160273258e-45
-1.4867314619176e-43
-2.5485009897135e-42
-4.0418740622908e-41
-5.9377346573555e-40
-8.088312088821e-39
-1.0226318252015e-37
-1.2011417285727e-36
-1.3116943206131e-35
-1.3327271042959e-34
-1.2606083472474e-33
-1.1106056140882e-32
-9.1167097602552e-32
-6.9745748962655e-31
-4.9732921246225e-30
-3.3052328612626e-29
-2.0469842733296e-28
-1.1809672970102e-27
-6.3439401140014e-27
-3.1709608664774e-26
-1.4735553187157e-25
-6.3596412080589e-25
-2.5459024882153e-24
-9.4393420000199e-24
-3.2356634193809e-23
-1.0233050153853e-22
-2.9786117560167e-22
-7.95721019364e-22
-1.9445113333445e-21
-4.3299351450914e-21
-8.7456993372047e-21
-1.5936941797381e-20
-2.6032111299094e-20
-3.7819691708734e-20
-4.8402980605911e-20
-5.3923160124944e-20
-5.1496804055935e-20
-4.1316105816307e-20
-2.708603282504e-20
-1.3935777151677e-20
-5.2786218010952e-21
-1.3104014886464e-21
-1.6132229336048e-22
-1.0630720355879e-24
-2.949327911483e-25
-3.8380883252358e-26
0
0
0
0
0
0
0
0
0
0
0
0
0
0
0
0
0
0
0
0
0
0
0
0
0
0
0
0
0
0
0
0
0
0
8.4425170978126e-83
3.6234705571968e-80
8.1512844857544e-78
-1.4092772472624e-74
-3.4481136818967e-70
-1.2725370014947e-67
-2.3203305079454e-65
-2.7771653395966e-63
-2.4537578869246e-61
-1.7075878199945e-59
-9.7540572037812e-58
-4.7065735361673e-56
-1.9594214727772e-54
-7.1531454792949e-53
-2.3192948639856e-51
-6.7474221466494e-50
-1.7758829058745e-48
-4.2566119298746e-47
-9.3410770331889e-46
-1.8847433975255e-44
-3.5081760363207e-43
-6.0397717555732e-42
-9.6372633584194e-41
-1.427470392887e-39
-1.9651407279867e-38
-2.5167997543372e-37
-3.0009344818741e-36
-3.3332652937933e-35
-3.4505049584479e-34
-3.3299520934987e-33
-2.996626501652e-32
-2.5148875438288e-31
-1.9683527088042e-30
-1.4366342999934e-29
-9.7759727745742e-29
-6.2001652963071e-28
-3.6633529641559e-27
-2.0152459168294e-26
-1.0313976357878e-25
-4.9065370216116e-25
-2.1671877288851e-24
-8.8761124669314e-24
-3.3657834599412e-23
-1.1795219373604e-22
-3.8121759971375e-22
-1.133519973614e-21
-3.0920331199489e-21
-7.7122910276694e-21
-1.7521408305996e-20
-3.609338599941e-20
-6.705359038381e-20
-1.1162421034056e-19
-1.6521820002073e-19
-2.1536439145144e-19
-2.4429960109977e-19
-2.3750350212127e-19
-1.9393705512263e-19
-1.2937785111555e-19
-6.7725526884519e-20
-2.609747931882e-20
-6.5907618374813e-21
-8.2597495016652e-22
-5.9050554712087e-24
-1.6249210462942e-24
-2.1234703375538e-25
0
0
0
0
0
0
0
0
0
0
0
0
0
0
0
0
0
0
0
0
0
0
0
0
0
0
0
0
0
0
0
0
0
0
0
8.5491259761546e-81
3.6108943249168e-78
7.9909629591743e-76
-8.3947936011699e-73
-2.1655847964027e-68
-7.8637191844371e-66
-1.4098982174931e-63
-1.657823645999e-61
-1.437137551229e-59
-9.7948658274797e-58
-5.4669356123493e-56
-2.5702573785795e-54
-1.0391352655822e-52
-3.6702289130871e-51
-1.1467049495489e-49
-3.2012073640756e-48
-8.051192428155e-47
-1.8367919283553e-45
-3.8228787610322e-44
-7.2932880822134e-43
-1.2805232004764e-41
-2.0759567654832e-40
-3.1160023201917e-39
-4.3399784391304e-38
-5.6189933687117e-37
-6.7719912757025e-36
-7.6054480692728e-35
-7.9657238054405e-34
-7.7849198071147e-33
-7.1016141575155e-32
-6.0478363683287e-31
-4.8081499609232e-30
-3.5679681131081e-29
-2.4705724319046e-28
-1.5955738857133e-27
-9.6056810332063e-27
-5.386651195663e-26
-2.8113276179458e-25
-1.3641383588308e-24
-6.1466098800517e-24
-2.5682319902316e-23
-9.934597014627e-23
-3.5511737341278e-22
-1.1704801191059e-21
-3.5485297406427e-21
-9.866873358915e-21
-2.5079181392872e-20
-5.804538019366e-20
-1.2177838519949e-19
-2.3035090868943e-19
-3.9034073112842e-19
-5.8798784965385e-19
-7.7989367237887e-19
-9.0008256101968e-19
-8.9021866278804e-19
-7.39510801094e-19
-5.0188987092637e-19
-2.6729196012156e-19
-1.0479608136638e-19
-2.6930389070921e-20
-3.4362306406282e-21
-2.6231029262097e-23
-7.1936122297614e-24
-9.469758798274e-25
0
0
0
0
0
0
0
0
0
0
0
0
0
0
0
0
0
0
0
0
0
0
0
0
0
0
0
0
0
0
0
0
0
0
0
0
5.6775128309718e-79
2.359226095539e-76
5.1345045339939e-74
-3.6624256218265e-71
-1.0020413544237e-66
-3.5789792402502e-64
-6.3077519053726e-62
-7.286453927746e-60
-6.2004560589404e-58
-4.144101681865e-56
-2.2653491872059e-54
-1.0415198187132e-52
-4.11044438698e-51
-1.4143251133126e-49
-4.2949234113034e-48
-1.1624670264958e-46
-2.8270367224998e-45
-6.2190939824002e-44
-1.2445849006215e-42
-2.276706908327e-41
-3.8225185582153e-40
-5.9110640887789e-39
-8.4439161771086e-38
-1.1170566369978e-36
-1.3714309854828e-35
-1.5652917342501e-34
-1.663217071639e-33
-1.6470665843315e-32
-1.5213709281245e-31
-1.311474988073e-30
-1.055405339766e-29
-7.9295365161993e-29
-5.561450108789e-28
-3.6399478684105e-27
-2.2219830248566e-26
-1.2641979902647e-25
-6.6977363386406e-25
-3.300713557558e-24
-1.5111172654678e-23
-6.4173105649775e-23
-2.5236507630088e-22
-9.1722487304208e-22
-3.0741167846974e-21
-9.476568362958e-21
-2.679130027894e-20
-6.9228015917383e-20
-1.628612375132e-19
-3.4723349069325e-19
-6.6736541111007e-19
-1.1488719027781e-18
-1.7579309450896e-18
-2.3684044613765e-18
-2.7765731514706e-18
-2.789930381054e-18
-2.3551657527864e-18
-1.6248717013791e-18
-8.8006292152319e-19
-3.5105834481642e-19
-9.1822595624838e-20
-1.1931224776454e-20
-9.6107132365952e-23
-2.6356281557418e-23
-3.5034847428216e-24
0
0
0
0
0
0
0
0
0
0
0
0
0
0
0
0
0
0
0
0
0
0
0
0
0
0
0
0
0
0
0
0
0
0
0
0
0
2.7807760878352e-77
1.1365148677895e-74
2.4316978389846e-72
-1.24647405169e-69
-3.6424861558999e-65
-1.2791522600096e-62
-2.2152675740992e-60
-2.5132321931996e-58
-2.0991489537533e-56
-1.3760658269351e-54
-7.371567371778e-53
-3.3179582688343e-51
-1.2804612538331e-49
-4.3025648721527e-48
-1.2740611968461e-46
-3.3570622379612e-45
-7.9336930395831e-44
-1.6927666729736e-42
-3.2789051174451e-41
-5.7931136393426e-40
-9.3732949363764e-39
-1.3936997511686e-37
-1.9100029290651e-36
-2.4187863410951e-35
-2.8366852158934e-34
-3.0866174725409e-33
-3.1209599456496e-32
-2.9361556314339e-31
-2.5726999231176e-30
-2.1010582579618e-29
-1.600053868131e-28
-1.1365234619587e-27
-7.5294290718721e-27
-4.651277976812e-26
-2.6778810345702e-25
-1.4358107998326e-24
-7.1624972633626e-24
-3.3201872305556e-23
-1.4280840290826e-22
-5.6896878711798e-22
-2.0955500930335e-21
-7.118434619864e-21
-2.224361934867e-20
-6.3746181107989e-20
-1.6696773912764e-19
-3.9812116468131e-19
-8.6020429043662e-19
-1.6751389126949e-18
-2.9214145720145e-18
-4.5279876189025e-18
-6.1791651913599e-18
-7.3385061030894e-18
-7.4724084445936e-18
-6.3960470891285e-18
-4.478202720829e-18
-2.4641253132359e-18
-9.9976487207759e-19
-2.6622757314158e-19
-3.5233954308296e-20
-2.9598028083234e-22
-8.147746405622e-23
-1.0977431509963e-23
0
0
0
0
0
0
0
0
0
0
0
0
0
0
0
0
0
0
0
0
0
0
0
0
0
0
0
0
0
0
0
0
0
0
0
0
0
0
1.0711229664205e-75
4.3044968156254e-73
9.0514626263132e-71
-3.4412328017977e-68
-1.0831574130778e-63
-3.7383645586615e-61
-6.3589610325818e-59
-7.0824605127619e-57
-5.8044086758854e-55
-3.7312666363905e-53
-1.9587576391436e-51
-8.6328818602008e-50
-3.2593542101564e-48
-1.0703915802021e-46
-3.0944065286869e-45
-7.9504258754561e-44
-1.8296671018136e-42
-3.7960412916639e-41
-7.1387456241117e-40
-1.2224724464957e-38
-1.9137444559716e-37
-2.7479998173886e-36
-3.629903397921e-35
-4.4218483706805e-34
-4.9782563910368e-33
-5.1893816734145e-32
-5.0164595063967e-31
-4.5028454800082e-30
-3.7569967119485e-29
-2.9161399438771e-28
-2.1068495580113e-27
-1.4172715680601e-26
-8.8775773470277e-26
-5.1769378131821e-25
-2.8092367942829e-24
-1.4174953640911e-23
-6.6440264503797e-23
-2.889012212023e-22
-1.1635256495149e-21
-4.3318453775683e-21
-1.4874916575469e-20
-4.6986654380134e-20
-1.3611584789437e-19
-3.6035537602104e-19
-8.6832338782526e-19
-1.8954975157072e-18
-3.7280692862153e-18
-6.5641146521268e-18
-1.0267940290787e-17
-1.4138196924827e-17
-1.6941346183402e-17
-1.741128082572e-17
-1.5055512480815e-17
-1.0664985486594e-17
-5.9499112534045e-18
-2.4534847601443e-18
-6.6532372581233e-19
-8.9688335969902e-20
-7.7199823089001e-22
-2.1470744155247e-22
-2.9578230558346e-23
0
0
0
0
0
0
0
0
0
0
0
0
0
0
0
0
0
0
0
0
0
0
0
0
0
0
0
0
0
0
0
0
0
0
0
0
0
0
0
3.3789044141152e-74
1.334766277292e-71
2.7574925596509e-69
-7.9088963010202e-67
-2.7092319859025e-62
-9.1855673382146e-60
-1.5339447675433e-57
-1.6764937466332e-55
-1.3475805615709e-53
-8.4916926639738e-52
-4.3671201505852e-50
-1.8843090157904e-48
-6.9595827531794e-47
-2.2340303327071e-45
-6.306988851364e-44
-1.5808818213608e-42
-3.5454573306702e-41
-7.1599268484147e-40
-1.3089457105572e-38
-2.1760202488984e-37
-3.3021061251082e-36
-4.5890551785985e-35
-5.8570019377762e-34
-6.8816345079044e-33
-7.4587864902482e-32
-7.4708626696878e-31
-6.9254409782972e-30
-5.9489147177421e-29
-4.7399987979869e-28
-3.5059445461588e-27
-2.4085400999595e-26
-1.5372968409419e-25
-9.116806568753e-25
-5.0225306446351e-24
-2.5691641697444e-23
-1.2193219715575e-22
-5.3633375539091e-22
-2.1833876300726e-21
-8.2118281604295e-21
-2.8472772035458e-20
-9.0779227156946e-20
-2.6533565426286e-19
-7.0846536590391e-19
-1.7209281110579e-18
-3.7847943658362e-18
-7.4942625384128e-18
-1.3273488106042e-17
-2.0867569703329e-17
-2.8854425802715e-17
-3.470364461683e-17
-3.5801895373651e-17
-3.1108016212741e-17
-2.2193890935919e-17
-1.2514874095204e-17
-5.2384000391812e-18
-1.4470039474161e-18
-1.9866962736529e-19
-1.7017626991743e-21
-4.8347549687093e-22
-6.9326021294987e-23
0
0
0
0
0
0
0
0
0
0
0
0
0
0
0
0
0
0
0
0
0
0
0
0
0
0
0
0
0
0
0
0
0
0
0
0
0
0
0
0
8.9758849687613e-73
3.4843416372813e-70
7.0694794388715e-68
-1.5401057500969e-65
-5.8164184426313e-61
-1.9363319476226e-58
-3.1730064704577e-56
-3.4012967233107e-54
-2.6802002490662e-52
-1.6548093144271e-50
-8.3337385549682e-49
-3.5189572792372e-47
-1.2710501588131e-45
-3.9871203826012e-44
-1.099075132007e-42
-2.687530565431e-41
-5.8743031627036e-40
-1.1549686674715e-38
-2.0533951092185e-37
-3.3157166355791e-36
-4.8809488566554e-35
-6.5709724287914e-34
-8.1119818088835e-33
-9.2044320926657e-32
-9.6181480265686e-31
-9.2710954550388e-30
-8.2550357292098e-29
-6.7975184506895e-28
-5.1810621771932e-27
-3.657791107298e-26
-2.3930230965896e-25
-1.4511024324565e-24
-8.155714170044e-24
-4.2473246652403e-23
-2.0483936239118e-22
-9.1406693396246e-22
-3.7695160169042e-21
-1.4343388439052e-20
-5.0258974836562e-20
-1.6177414643345e-19
-4.7692745669165e-19
-1.2832294514486e-18
-3.1378988396335e-18
-6.9391057336176e-18
-1.3796679598455e-17
-2.4496742386171e-17
-3.8537360823502e-17
-5.3224719146958e-17
-6.3844577384321e-17
-6.5653996997481e-17
-5.6924519533126e-17
-4.0659511017858e-17
-2.3081411609908e-17
-9.7920252636801e-18
-2.7565825377841e-18
-3.8544339955311e-19
-3.1409166286564e-21
-9.2728805005339e-22
-1.4256624760167e-22
0
0
0
0
0
0
0
0
0
0
0
0
0
0
0
0
0
0
0
0
0
0
0
0
0
0
0
0
0
0
0
0
0
0
0
0
0
0
0
0
0
2.0490927317376e-71
7.8141606692492e-69
1.5564851562696e-66
-2.5708606295239e-64
-1.0884086141851e-59
-3.5560388314571e-57
-5.7151009857126e-55
-6.0055663367141e-53
-4.63682499827e-51
-2.803615194998e-49
-1.3819166765164e-47
-5.7077049308416e-46
-2.0152435602141e-44
-6.1748960155527e-43
-1.6613688995834e-41
-3.9618383867439e-40
-8.4374709938947e-39
-1.6147921793827e-37
-2.7916145331071e-36
-4.378334025517e-35
-6.2525942335571e-34
-8.155444597818e-33
-9.7410002889768e-32
-1.0677885718604e-30
-1.0762133730895e-29
-9.9888360418741e-29
-8.5484364423877e-28
-6.7523568622464e-27
-4.9267282892217e-26
-3.3222573232942e-25
-2.071170424669e-24
-1.1938226247043e-23
-6.3610712622976e-23
-3.1318114739493e-22
-1.4236930003175e-21
-5.9693998924785e-21
-2.3052422656348e-20
-8.1840784391322e-20
-2.6648735327752e-19
-7.935610995571e-19
-2.1534778311229e-18
-5.3025315336662e-18
-1.1785513639019e-17
-2.3498257921584e-17
-4.1721910596382e-17
-6.5412821824038e-17
-8.9701480015099e-17
-1.0647079900795e-16
-1.0813196478811e-16
-9.2694512696184e-17
-6.5798488693706e-17
-3.7442199009781e-17
-1.6077726616468e-17
-4.6171828464273e-18
-6.5769574678775e-19
-4.7770479162759e-21
-1.5041150615471e-21
-2.5886188195023e-22
0
0
0
0
0
0
0
0
0
0
0
0
0
0
0
0
0
0
0
0
0
0
0
0
0
0
0
0
0
0
0
0
0
0
0
0
0
0
0
0
0
0
4.082509092049e-70
1.5289147792734e-67
2.9886381397855e-65
-3.7026816807215e-63
-1.7967019351301e-58
-5.758088859295e-56
-9.0713500324901e-54
-9.3394881710474e-52
-7.0614605783265e-50
-4.1789527222057e-48
-2.0149287888782e-46
-8.1358470778609e-45
-2.8063793689928e-43
-8.394954517198e-42
-2.203401644861e-40
-5.1216224376754e-39
-1.0622441221879e-37
-1.9779710791155e-36
-3.3236102984853e-35
-5.0610765976703e-34
-7.0091801226534e-33
-8.8549079096843e-32
-1.023023990375e-30
-1.0831447818938e-29
-1.0527976590165e-28
-9.407676477327e-28
-7.737419791621e-27
-5.8623122572654e-26
-4.0942558089881e-25
-2.6368353642222e-24
-1.5662326617112e-23
-8.5792467463123e-23
-4.3321227761404e-22
-2.0152314044022e-21
-8.6277323266091e-21
-3.3949586208411e-20
-1.2256821422778e-19
-4.0509594930439e-19
-1.2222433296426e-18
-3.3547218170273e-18
-8.3397327618041e-18
-1.8674894284123e-17
-3.7409899772081e-17
-6.6473445860965e-17
-1.0371447219065e-16
-1.4048207148648e-16
-1.6330825540723e-16
-1.6134306485973e-16
-1.3451142564807e-16
-9.3798757783595e-17
-5.3315217098675e-17
-2.3165408720352e-17
-6.8007831565225e-18
-9.8720911774637e-19
-5.8278175179179e-21
-2.0415071127253e-21
-4.1672100176845e-22
0
0
0
0
0
0
0
0
0
0
0
0
0
0
0
0
0
0
0
0
0
0
0
0
0
0
0
0
0
0
0
0
0
0
0
0
0
0
0
0
0
0
0
7.1849348181429e-69
2.6416006789825e-66
5.0653418798011e-64
-4.6050100328944e-62
-2.6417472047579e-57
-8.300231164604e-55
-1.281093268623e-52
-1.2915388499925e-50
-9.5572384632008e-49
-5.5325350199326e-47
-2.6078599881366e-45
-1.0287880760172e-43
-3.4648068283067e-42
-1.0112307591554e-40
-2.5875700923934e-39
-5.8588965434096e-38
-1.1826606974131e-36
-2.1412815076663e-35
-3.4949671635099e-34
-5.1639824512276e-33
-6.9312815117592e-32
-8.4760504857659e-31
-9.4662284021464e-30
-9.6746215287488e-29
-9.0630703905387e-28
-7.7923760900928e-27
-6.1554149102963e-26
-4.4705115563292e-25
-2.9865832966316e-24
-1.8357028016617e-23
-1.0380540480376e-22
-5.398700107678e-22
-2.5807512606144e-21
-1.1328952925321e-20
-4.5610780563291e-20
-1.681348375149e-19
-5.6630068652796e-19
-1.7381846319554e-18
-4.8459068587466e-18
-1.2219386221403e-17
-2.77127772288e-17
-5.609716605926e-17
-1.0030056616802e-16
-1.5625793789145e-16
-2.0866395855993e-16
-2.349191051087e-16
-2.2058873011758e-16
-1.7346766190759e-16
-1.1629920040551e-16
-6.5936496999659e-17
-2.9036428482822e-17
-8.7542561336322e-18
-1.2953342188334e-18
-5.3988839832144e-21
-2.281823220968e-21
-5.9577951179845e-22
0
0
0
0
0
0
0
0
0
0
0
0
0
0
0
0
0
0
0
0
0
0
0
0
0
0
0
0
0
0
0
0
0
0
0
0
0
0
0
0
0
0
0
0
1.1278776914548e-67
4.0695068065613e-65
7.6515819402038e-63
-4.9094310785989e-61
-3.4870060760437e-56
-1.0735150153351e-53
-1.6223599357037e-51
-1.6006405382123e-49
-1.1585358071254e-47
-6.556170010252e-46
-3.0192653894876e-44
-1.1629407997851e-42
-3.8214595354572e-41
-1.0874311597082e-39
-2.7108471329628e-38
-5.9748391792951e-37
-1.1729471146018e-35
-2.0633969108214e-34
-3.2688584823261e-33
-4.6827727494305e-32
-6.0867262831301e-31
-7.1988723785889e-30
-7.7652607854778e-29
-7.653906727495e-28
-6.9040925810724e-27
-5.7061079588356e-26
-4.3247597208329e-25
-3.0076318891012e-24
-1.9198101910433e-23
-1.1247925639833e-22
-6.0471933806776e-22
-2.9816776379587e-21
-1.3471436558254e-20
-5.5704177801858e-20
-2.104756901833e-19
-7.2529882876973e-19
-2.2741884450077e-18
-6.4702127731794e-18
-1.6643472823649e-17
-3.8511428083211e-17
-7.9518295199653e-17
-1.446247916415e-16
-2.2714015187127e-16
-2.9978411539848e-16
-3.2241396520313e-16
-2.7693365078675e-16
-1.9465748580932e-16
-1.2188309721004e-16
-6.8897240678947e-17
-3.0797312064112e-17
-9.6800444870131e-18
-1.4645136094821e-18
-3.2530536979316e-21
-2.0464149291909e-21
-7.5518537203524e-22
0
0
0
0
0
0
0
0
0
0
0
0
0
0
0
0
0
0
0
0
0
0
0
0
0
0
0
0
0
0
0
0
0
0
0
0
0
0
0
0
0
0
0
0
0
1.591811859692e-66
5.6344073659304e-64
1.0383255740922e-61
-4.382768588236e-60
-4.1590067217758e-55
-1.2538688413831e-52
-1.8543063722409e-50
-1.7892940161777e-48
-1.2659413475239e-46
-6.9987467549593e-45
-3.146808535216e-43
-1.1826054062057e-41
-3.7889485758398e-40
-1.0504385674621e-38
-2.5491912104873e-37
-5.4648267963846e-36
-1.0425075463764e-34
-1.7803421792614e-33
-2.7351137310093e-32
-3.7953015747763e-31
-4.7726553158799e-30
-5.4538525295707e-29
-5.6760154559736e-28
-5.3896091207141e-27
-4.6757592431869e-26
-3.7100767630616e-25
-2.6944044286993e-24
-1.7917239201607e-23
-1.091080884096e-22
-6.083304167793e-22
-3.1038798192407e-21
-1.4481061108808e-20
-6.1706338681521e-20
-2.3980356398664e-19
-8.4843359165575e-19
-2.7275464442526e-18
-7.9510324870275e-18
-2.0967991969216e-17
-4.9853441757776e-17
-1.063337904447e-16
-2.0406987612833e-16
-3.7469728339814e-16
-7.790668661163e-16
-1.8391324036094e-15
-3.4233174901692e-15
-3.118955326382e-15
-1.0543701988892e-16
-6.0365616183115e-17
-2.6845583291795e-17
-8.8410542069111e-18
-1.3875009127677e-18
-3.0465296904144e-22
-1.4080205472308e-21
-8.4241285636403e-22
0
0
0
0
0
0
0
0
0
0
0
0
0
0
0
0
0
0
0
0
0
0
0
0
0
0
0
0
0
0
0
0
0
0
0
0
0
0
0
0
0
0
0
0
0
0
2.0331780770518e-65
7.0573830098716e-63
1.274101312912e-60
-3.0619096176036e-59
-4.5068544443352e-54
-1.3297925395867e-51
-1.9232467106768e-49
-1.8138921532218e-47
-1.2536401892177e-45
-6.7662644908476e-44
-2.9681835067068e-42
-1.0875640812221e-40
-3.3947668021591e-39
-9.1621442765496e-38
-2.1627128236339e-36
-4.5055894305784e-35
-8.3447655856686e-34
-1.38213066652e-32
-2.0570754829407e-31
-2.7620631911921e-30
-3.3566387998739e-29
-3.7017543433638e-28
-3.7124724680967e-27
-3.3915371875056e-26
-2.825907477265e-25
-2.1495037830978e-24
-1.4934117833169e-23
-9.4794276912007e-23
-5.4967622451061e-22
-2.9105564627673e-21
-1.4062737734522e-20
-6.193367217403e-20
-2.4828623139957e-19
-9.0460085012579e-19
-2.9904539723131e-18
-8.9579084650032e-18
-2.4292338162276e-17
-5.956522189016e-17
-1.3153649521041e-16
-2.6099175741732e-16
-4.9330338852559e-16
-1.1034132334911e-15
-2.9262786261588e-15
-5.6495997655691e-15
-4.5211024371231e-15
-6.4894590147414e-17
-3.7312613714673e-17
-1.6330310619095e-17
-5.9983338789469e-18
-1.0278834626669e-18
1.8530476029368e-21
-6.9120308804905e-22
-8.1132807248353e-22
0
0
0
0
0
0
0
0
0
0
0
0
0
0
0
0
0
0
0
0
0
0
0
0
0
0
0
0
0
0
0
0
0
0
0
0
0
0
0
0
0
0
0
0
0
0
0
2.3633120845238e-64
8.0413597672683e-62
1.4215245580479e-59
-1.2620037731281e-58
-4.4576987797269e-53
-1.286469285566e-50
-1.8184137258475e-48
-1.6751596289371e-46
-1.1301800920467e-44
-5.9508952321019e-43
-2.5450295743246e-41
-9.0847974076829e-40
-2.7605515435717e-38
-7.2468922501278e-37
-1.6624165384649e-35
-3.3625513623059e-34
-6.0404337310138e-33
-9.6932203171442e-32
-1.3961361645665e-30
-1.8118631144422e-29
-2.1253218091154e-28
-2.2590419239749e-27
-2.1801890282453e-26
-1.9133877327045e-25
-1.5287565998231e-24
-1.1128101302035e-23
-7.3826993858552e-23
-4.4641013771187e-22
-2.4594815872941e-21
-1.2338541319672e-20
-5.6308297415287e-20
-2.3346344990392e-19
-8.781534926375e-19
-2.9924151147526e-18
-9.2300036470787e-18
-2.5776639663615e-17
-6.5258992785106e-17
-1.4962221607964e-16
-3.0726759360397e-16
-5.6504681448319e-16
-1.1324535927122e-15
-2.5101355702442e-15
-1.8816060831499e-15
8.673617379884e-19
0.047979632696235
0.072326039930118
0.012183350675675
-1.9488873108988e-18
-4.4601790362449e-19
2.0892442776598e-21
-2.4697804633883e-22
-6.4217403367473e-22
0
0
0
0
0
0
0
0
0
0
0
0
0
0
0
0
0
0
0
0
0
0
0
0
0
0
0
0
0
0
0
0
0
0
0
0
0
0
0
0
0
0
0
0
0
0
0
0
2.5117363078703e-63
8.3742119526799e-61
1.4488149267618e-58
5.5273393231081e-58
-4.0402719403932e-52
-1.1397173324304e-49
-1.5734078503317e-47
-1.4147833996106e-45
-9.3110372239614e-44
-4.7793120807563e-42
-1.9911546778247e-40
-6.9188028987776e-39
-2.0448704290161e-37
-5.216762354587e-36
-1.1618927380548e-34
-2.2795027806923e-33
-3.967532798648e-32
-6.1617392638222e-31
-8.5784698830308e-30
-1.0746747371035e-28
-1.2151318012529e-27
-1.2430748406156e-26
-1.1526911195747e-25
-9.7023490989925e-25
-7.4200539049268e-24
-5.1587724669269e-23
-3.261159857146e-22
-1.874140913306e-21
-9.7859085053127e-21
-4.6386053209277e-20
-1.9936674142454e-19
-7.7590853425538e-19
-2.7309471052023e-18
-8.6874507236206e-18
-2.5000057970694e-17
-6.5285439219323e-17
-1.5525408480779e-16
-3.3412419410135e-16
-6.3834881050229e-16
-1.1402719534478e-15
-3.730228206541e-15
-1.0339757656913e-25
0.1305596710112
0.74690087575901
1
0.99025881476528
0.75548708369799
0.24246156090224
6.1736996305157e-22
-9.4743283188025e-23
-3.5359949102874e-22
1.5810821593497e-27
8.9569113043131e-27
3.6202112729879e-26
1.1078194835823e-25