/*--------------------------------*- C++ -*----------------------------------*\
| =========                 |                                                 |
| \\      /  F ield         | OpenFOAM: The Open Source CFD Toolbox           |
|  \\    /   O peration     | Version:  2106                                  |
|   \\  /    A nd           | Website:  www.openfoam.com                      |
|    \\/     M anipulation  |                                                 |
\*---------------------------------------------------------------------------*/
FoamFile
{
    version     2.0;
    format      ascii;
    arch        "LSB;label=32;scalar=64";
    class       volScalarField;
    location    "3";
    object      alpha.water;
}
// * * * * * * * * * * * * * * * * * * * * * * * * * * * * * * * * * * * * * //

dimensions      [0 0 0 0 0 0 0];

internalField   nonuniform List<scalar> 
6000
(
0
0
0
0
0
0
0
0
0
0
0
0
0
0
0
0
0
0
0
0
0
0
0
0
0
0
0
0
0
0
0
0
0
0
0
0
0
0
0
0
0
0
0
0
0
0
0
0
0
0
0
0
0
0
0
0
0
0
0
0
0
0
0
0
0
0
0
0
0
0
0
0
0
0
0
0
0
0
0
0
0
0
0
0
0
0
0
0
0
0
0
0
0
0
0
0
0
0
0
0
0
0
0
0
0
0
0
0
0
0
0
0
0
0
0
0
0
0
0
0
0
0
0
0
0
0
0
0
0
0
0
0
0
0
0
0
0
0
0
0
0
0
0
0
0
0
0
0
0
0
0
0
0
0
0
0
0
0
0
0
0
0
0
0
0
0
0
0
0
0
0
0
0
0
0
0
0
0
0
0
0
0
0
0
0
0
0
0
0
0
0
0
0
0
0
0
0
0
0
0
0
0
0
0
0
0
0
0
0
0
0
0
0
0
0
0
0
0
0
0
0
0
0
0
0
0
0
0
0
0
0
0
0
0
0
0
0
0
0
0
0
0
0
0
0
0
0
0
0
0
0
0
0
0
0
0
0
0
0
0
0
0
0
0
0
0
0
0
0
0
0
0
0
0
0
0
0
0
0
0
0
0
0
0
0
0
0
0
0
0
0
0
0
0
0
0
0
0
0
0
0
0
0
0
0
0
0
0
0
0
0
0
0
0
0
0
0
0
0
0
0
0
0
0
0
0
0
0
0
0
0
0
0
0
0
0
0
0
0
0
0
0
0
0
0
0
0
0
0
0
0
0
0
0
0
0
0
0
0
0
0
0
0
0
0
0
0
0
0
0
0
0
0
0
0
0
0
0
0
0
0
0
0
0
0
0
0
0
0
0
0
0
0
0
0
0
0
0
0
0
0
0
0
0
0
0
0
0
0
0
0
0
0
0
0
0
0
0
0
0
0
0
0
0
0
0
0
0
0
0
0
0
0
0
0
0
0
0
0
0
0
0
0
0
0
0
0
0
0
0
0
0
0
0
0
0
0
0
0
0
0
0
0
0
0
0
0
0
0
0
0
0
0
0
0
0
0
0
0
0
0
0
0
0
0
0
0
0
0
0
0
0
0
0
0
0
0
0
0
0
0
0
0
0
0
0
0
-2.4029071514026e-129
1.0422579956506e-124
6.6349612029203e-122
2.0794253864671e-119
8.6762992502664e-117
3.4517190453988e-114
9.6055845092263e-112
1.9103022766332e-109
2.8888606771854e-107
3.4886028700342e-105
3.4852703365613e-103
2.9561747214196e-101
2.1707593096994e-99
1.4010615453833e-97
8.0444251728181e-96
4.1492565235677e-94
1.9381690238407e-92
8.2547269397077e-91
3.2240714955431e-89
1.1605022874213e-87
3.866246933371e-86
1.1966406017149e-84
3.4522459345797e-83
9.3104978926887e-82
2.3534631294404e-80
5.5887675435914e-79
1.249414749938e-77
2.6344939329507e-76
5.2484027953289e-75
9.8938758642529e-74
1.7673534384575e-72
2.9953753705311e-71
4.8222949589829e-70
7.3822725084235e-69
1.0756692121263e-67
1.4931428973515e-66
1.9760853239606e-65
2.4952163545195e-64
3.0081296877193e-63
3.4644279446076e-62
3.8137206180794e-61
4.0147712225373e-60
4.0434993315606e-59
3.8976933391861e-58
3.5971684992303e-57
3.179411468735e-56
2.6920133666268e-55
2.1839675857109e-54
1.6979718089204e-53
1.2652901985169e-52
9.0379276807164e-52
6.1886246935777e-51
4.0623517405352e-50
2.5563164781886e-49
1.5420027537421e-48
8.9156466094666e-48
4.9404361964945e-47
2.6233346093034e-46
1.3345427666669e-45
6.5027796232461e-45
3.0341214831686e-44
1.3551758470156e-43
5.7920119523418e-43
2.3678644545221e-42
9.2550644725208e-42
3.4568212810106e-41
1.2331208558736e-40
4.1985295354986e-40
1.3635052471732e-39
4.2204743532458e-39
1.2441044413303e-38
3.4894482508987e-38
9.3033282605374e-38
2.3552646567874e-37
5.6553050654729e-37
1.2862789476197e-36
2.7674041061183e-36
5.6234852303765e-36
1.0774726673644e-35
1.9430039321664e-35
3.290970976021e-35
5.223714820961e-35
7.7509350399577e-35
1.0721057687471e-34
1.3780812190005e-34
1.6403639009675e-34
1.8009700031394e-34
1.8155327591253e-34
1.6717412294968e-34
1.3975718879351e-34
1.053261658644e-34
7.095587678519e-35
4.2295811852914e-35
0
0
0
0
0
0
0
-8.1556566106606e-127
3.1620220033423e-122
1.9928249927954e-119
1.6017281886571e-116
9.0401271260094e-114
-3.9185283140947e-110
-2.5379436629188e-107
-7.843221785321e-105
-1.5867761218511e-102
-2.3750997157851e-100
-2.8090339489469e-98
-2.7355229969325e-96
-2.2563823545234e-94
-1.609249954983e-92
-1.0080502685356e-90
-5.6148781722921e-89
-2.8087379068821e-87
-1.2721607380992e-85
-5.2528882500455e-84
-1.9888087289239e-82
-6.938748238071e-81
-2.2404106325586e-79
-6.7198651897345e-78
-1.8785003293786e-76
-4.908468047785e-75
-1.2019620595422e-73
-2.7647243129627e-72
-5.9859322421489e-71
-1.2222023647327e-69
-2.3573237892426e-68
-4.3015387530815e-67
-7.4363299406771e-66
-1.2194669513808e-64
-1.8991295871826e-63
-2.8116676753506e-62
-3.9610378662238e-61
-5.3145085623307e-60
-6.7961913158153e-59
-8.2894196641755e-58
-9.6497732895256e-57
-1.0727429855333e-55
-1.1394242493318e-54
-1.1568792454736e-53
-1.1232651624461e-52
-1.0433392627658e-51
-9.2737315265024e-51
-7.8901654953935e-50
-6.4271458373095e-49
-5.013372086542e-48
-3.7452661336896e-47
-2.6799079616736e-46
-1.8368239342024e-45
-1.2059638811161e-44
-7.5842312323462e-44
-4.5684971441261e-43
-2.6355801424797e-42
-1.4559920164073e-41
-7.7009163392534e-41
-3.8987795665786e-40
-1.8888651159153e-39
-8.7543224703605e-39
-3.8800399535278e-38
-1.6438533806115e-37
-6.654288751086e-37
-2.5723279360182e-36
-9.4904341422412e-36
-3.3396622024013e-35
-1.1201291924273e-34
-3.5780271301256e-34
-1.08756614904e-33
-3.1426323901154e-33
-8.6239416023195e-33
-2.2448942326682e-32
-5.5362743898937e-32
-1.2917231061171e-31
-2.8470026972915e-31
-5.9175205613198e-31
-1.1577451254843e-30
-2.1276745535568e-30
-3.6644666226823e-30
-5.8993495769276e-30
-8.8515600709094e-30
-1.2337508011115e-29
-1.5914763928444e-29
-1.8917974165912e-29
-2.0620464773631e-29
-2.0490927551211e-29
-1.8437554451447e-29
-1.4899902453747e-29
-1.0707786595075e-29
-6.7595642377341e-30
-3.6903084249018e-30
-1.7070318567014e-30
0
0
0
0
0
2.0150851053267e-128
1.2395948311666e-125
3.751871092151e-123
5.5682136173731e-120
3.091565300384e-117
3.960689328016e-114
-3.7777696723172e-111
-1.6062095995294e-107
-8.9513993617183e-105
-2.6091925465821e-102
-5.0956107664302e-100
-7.4313445780775e-98
-8.6030549232306e-96
-8.2219253269511e-94
-6.6660445156346e-92
-4.677767317278e-90
-2.8849899015942e-88
-1.5828529980422e-86
-7.8014587610644e-85
-3.4821828223952e-83
-1.4170989787428e-81
-5.2882268289039e-80
-1.8185139198846e-78
-5.7872172980887e-77
-1.7107450749843e-75
-4.7128571495593e-74
-1.2134566099421e-72
-2.9276815417142e-71
-6.6341084826797e-70
-1.4148066220353e-68
-2.8449481759613e-67
-5.4030964310182e-66
-9.7064629939563e-65
-1.6516814531901e-63
-2.6655107001861e-62
-4.0842807065736e-61
-5.9481099068248e-60
-8.2409450263275e-59
-1.0871230931196e-57
-1.3665289421823e-56
-1.6379491592963e-55
-1.8732560256405e-54
-2.0452916644125e-53
-2.1330218361666e-52
-2.1257571084892e-51
-2.0252735008182e-50
-1.8452576557113e-49
-1.6082899900691e-48
-1.3412703849422e-47
-1.0705430717431e-46
-8.1789978991877e-46
-5.9821600340714e-45
-4.1890313528442e-44
-2.8085655394472e-43
-1.8028962616474e-42
-1.1080366644466e-41
-6.5192670624466e-41
-3.6715590888889e-40
-1.978958828938e-39
-1.0206244267537e-38
-5.035320869061e-38
-2.3756872151368e-37
-1.0715200599066e-36
-4.6183458464895e-36
-1.9013011144609e-35
-7.4726150255327e-35
-2.8022364250897e-34
-1.0020124760283e-33
-3.4140819554967e-33
-1.1075713863124e-32
-3.4181931514421e-32
-1.002631218132e-31
-2.792269126957e-31
-7.3748186343257e-31
-1.8449311031656e-30
-4.3656102068278e-30
-9.7562960562508e-30
-2.0557466463362e-29
-4.0765158225341e-29
-7.5917822089361e-29
-1.3247379798718e-28
-2.1603521260122e-28
-3.2829486571999e-28
-4.6336189532668e-28
-6.051575319869e-28
-7.2819386492394e-28
-8.0335174619123e-28
-8.07860886577e-28
-7.3549681998499e-28
-6.0131289013138e-28
-4.371153255418e-28
-2.790853473884e-28
-1.5408135559973e-28
-7.2069576323105e-29
-2.7771402037035e-29
0
0
0
0
0
6.3445770694715e-126
3.8601137530002e-123
1.182495640743e-120
7.2001446338635e-118
3.2932736617864e-115
-3.9559454166905e-111
-4.2385985229513e-108
-3.8321839398267e-105
-1.6833916701135e-102
-4.4724835574849e-100
-8.2997805699138e-98
-1.1695041037014e-95
-1.3187058415815e-93
-1.2329210990598e-91
-9.8044387514253e-90
-6.7591125135791e-88
-4.0996642193896e-86
-2.2136042468644e-84
-1.0742180313583e-82
-4.7223546534456e-81
-1.8931381116434e-79
-6.9601170323195e-78
-2.3581429820922e-76
-7.3938819080755e-75
-2.1533925080354e-73
-5.8442688487001e-72
-1.4823137043809e-70
-3.5225924780586e-69
-7.8611954320254e-68
-1.6508525202781e-66
-3.268301324507e-65
-6.11015929364e-64
-1.0803214873713e-62
-1.8089037662336e-61
-2.871949309207e-60
-4.3283689815108e-59
-6.1986977646467e-58
-8.4431980665544e-57
-1.0947327614797e-55
-1.3521778167219e-54
-1.5921435442743e-53
-1.7882243709066e-52
-1.9168770785538e-51
-1.9620686552731e-50
-1.918547763431e-49
-1.7928219161571e-48
-1.6015974451825e-47
-1.3681875854253e-46
-1.1179386312207e-45
-8.7388546956853e-45
-6.5361231069012e-44
-4.6780094424078e-43
-3.2040885622892e-42
-2.1001938494502e-41
-1.3173955332612e-40
-7.9076406065309e-40
-4.5415588140313e-39
-2.4953109742431e-38
-1.3113579247658e-37
-6.5900688319364e-37
-3.1659615901063e-36
-1.4535230997246e-35
-6.3748549719226e-35
-2.6696786225137e-34
-1.0670178409126e-33
-4.0678612449165e-33
-1.4783333194285e-32
-5.1178876223216e-32
-1.686512950714e-31
-5.2857059319834e-31
-1.5740803625045e-30
-4.4495536452041e-30
-1.1925633369902e-29
-3.026786072693e-29
-7.2647634392377e-29
-1.6464280161318e-28
-3.5173666731719e-28
-7.0703202482714e-28
-1.3344727642934e-27
-2.3595463207457e-27
-3.8982927626198e-27
-6.0004864749996e-27
-8.5770588528099e-27
-1.1342467926659e-26
-1.381766206265e-26
-1.5430185097711e-26
-1.570403421947e-26
-1.4467655402421e-26
-1.1967299076843e-26
-8.8005096248206e-27
-5.6833653847267e-27
-3.1733611712113e-27
-1.5009686499355e-27
-5.8482554310593e-28
-1.8026967372645e-28
0
0
0
0
0
9.881809306039e-124
5.97588201434e-121
1.8307656479161e-118
-3.5478879612093e-113
-8.016470170826e-109
-4.7861897096562e-106
-1.4288211148456e-103
-2.8446654956336e-101
-4.2738929631827e-99
-5.1991159494842e-97
-5.3560642426167e-95
-4.8117914728593e-93
-3.8405025498776e-91
-2.7540203050257e-89
-1.7861825088409e-87
-1.0521562643696e-85
-5.6466680370381e-84
-2.7688394626926e-82
-1.2440582672421e-80
-5.1368966084454e-79
-1.9551327797385e-77
-6.8794611147622e-76
-2.2443238380762e-74
-6.8071215183099e-73
-1.92448431655e-71
-5.08382402865e-70
-1.2576771001311e-68
-2.9198043316088e-67
-6.3734844331959e-66
-1.310401711645e-64
-2.5417892167526e-63
-4.6582981063631e-62
-8.0771655856586e-61
-1.326710701184e-59
-2.0666867143164e-58
-3.0563803075955e-57
-4.2952486129891e-56
-5.7410951605331e-55
-7.3041576089682e-54
-8.8516910320848e-53
-1.022457384879e-51
-1.12637070724e-50
-1.184029964261e-49
-1.1882079308625e-48
-1.1388070828967e-47
-1.0427802442973e-46
-9.1254782061984e-46
-7.6340154606689e-45
-6.1063133508292e-44
-4.6709810455753e-43
-3.417393910384e-42
-2.3915296357671e-41
-1.6009112339046e-40
-1.0251033097431e-39
-6.2785042154257e-39
-3.6778429278757e-38
-2.0602484456655e-37
-1.1034605364631e-36
-5.6494484302794e-36
-2.7640622481035e-35
-1.2919363398279e-34
-5.7666357822487e-34
-2.4569999738752e-33
-9.9879732900976e-33
-3.8716969045248e-32
-1.4302480256434e-31
-5.0316658852956e-31
-1.6845152297847e-30
-5.3621421331428e-30
-1.6214429635642e-29
-4.6528971342406e-29
-1.265658994942e-28
-3.2594503621029e-28
-7.9362188074814e-28
-1.8241872102682e-27
-3.9517235390431e-27
-8.0530546250639e-27
-1.5406247700906e-26
-2.7605567790605e-26
-4.6210581266276e-26
-7.2056361499619e-26
-1.0431948982658e-25
-1.3970125031425e-25
-1.7231359790025e-25
-1.9479464931766e-25
-2.0066366101764e-25
-1.8708546104921e-25
-1.5658758025641e-25
-1.1649987479656e-25
-7.6106099531903e-26
-4.2980621002632e-26
-2.0559466175036e-26
-8.1004533679812e-27
-2.5247651724773e-27
-5.8422793073454e-28
0
0
0
0
0
1.774968242769e-119
1.1639041077347e-116
3.8851078962338e-114
-9.9484296228185e-111
-2.4441945383391e-106
-1.4432976813591e-103
-4.2534811894633e-101
-8.3028322459136e-99
-1.2083194606621e-96
-1.4004300284723e-94
-1.3486385940946e-92
-1.1116572315489e-90
-8.0159288692475e-89
-5.140252570766e-87
-2.9682697004174e-85
-1.5583205032237e-83
-7.4919127943818e-82
-3.3166421875756e-80
-1.3576854197011e-78
-5.1560589618739e-77
-1.8213927737583e-75
-5.9982336958229e-74
-1.845127681722e-72
-5.3111101412307e-71
-1.4329151565389e-69
-3.6292228146865e-68
-8.6419988361019e-67
-1.9375007070515e-65
-4.0953128881816e-64
-8.1716694115178e-63
-1.5411463751624e-61
-2.7503435789166e-60
-4.6495411740814e-59
-7.4533794404841e-58
-1.1340350616677e-56
-1.6391204867351e-55
-2.2524706764385e-54
-2.9450766549021e-53
-3.6662502145101e-52
-4.3481946146139e-51
-4.9159331349938e-50
-5.3007599095474e-49
-5.4539062796912e-48
-5.3566675128254e-47
-5.0240959300813e-46
-4.5012728215435e-45
-3.8534051745323e-44
-3.1527092788847e-43
-2.4656513768863e-42
-1.843518048199e-41
-1.317867236082e-40
-9.0079555519967e-40
-5.8872717920489e-39
-3.6789112952259e-38
-2.1978951940495e-37
-1.2552285253375e-36
-6.8516123993658e-36
-3.5737381249433e-35
-1.7807278531761e-34
-8.4738463926325e-34
-3.8495735870286e-33
-1.6688252396383e-32
-6.9002943780881e-32
-2.7198747826429e-31
-1.0213926326589e-30
-3.6518006061057e-30
-1.2421317911787e-29
-4.0162013811381e-29
-1.2332566733329e-28
-3.5928845374728e-28
-9.919755393165e-28
-2.5923429933025e-27
-6.4036535071925e-27
-1.4929825853586e-26
-3.2798257543805e-26
-6.7766350575297e-26
-1.3141727427081e-25
-2.3865456409086e-25
-4.0480859402169e-25
-6.3949320814827e-25
-9.3779245190888e-25
-1.2718732009601e-24
-1.588517733634e-24
-1.8180566866451e-24
-1.8957803358079e-24
-1.7888805286396e-24
-1.515151039418e-24
-1.1405622242842e-24
-7.5378596750597e-25
-4.3060551553029e-25
-2.0832655611505e-25
-8.3008537024895e-26
-2.6162813614629e-26
-6.1221448499504e-27
-9.4964443430822e-28
0
0
0
0
0
5.582771525851e-117
3.6243195788269e-114
1.1975681143538e-111
-1.3629073806529e-108
-3.6853686839912e-104
-2.1540161711452e-101
-6.2774540699893e-99
-1.2097766631063e-96
-1.7334590910512e-94
-1.9704148283667e-92
-1.8518233259904e-90
-1.4809628923146e-88
-1.0294787073408e-86
-6.322721352283e-85
-3.4753387253556e-83
-1.7273999327068e-81
-7.8297148322013e-80
-3.2586962247808e-78
-1.2523755360586e-76
-4.4650374825378e-75
-1.4823908323599e-73
-4.5973046826569e-72
-1.3352720481205e-70
-3.640001775355e-69
-9.3303029142454e-68
-2.2523694976657e-66
-5.12786989634e-65
-1.1023699361029e-63
-2.2402702296417e-62
-4.3083023408846e-61
-7.8480561853433e-60
-1.3553698315268e-58
-2.2210493596615e-57
-3.4562527107163e-56
-5.1111710739063e-55
-7.187918307538e-54
-9.6190829742738e-53
-1.2256665366695e-51
-1.4878527141411e-50
-1.7215439549153e-49
-1.8995443907921e-48
-1.9995751279652e-47
-2.0088529009137e-46
-1.9267592141091e-45
-1.7648352547291e-44
-1.5441473475413e-43
-1.2908435219145e-42
-1.0311772041164e-41
-7.8727153381351e-41
-5.744948773326e-40
-4.007181603985e-39
-2.6716892966992e-38
-1.7025954312484e-37
-1.0370066073817e-36
-6.0359155239555e-36
-3.3567884655858e-35
-1.7833296987995e-34
-9.0480118995898e-34
-4.3828245646882e-33
-2.0261778354004e-32
-8.9360012076205e-32
-3.7579059482097e-31
-1.5061013268195e-30
-5.749216356097e-30
-2.0889108634246e-29
-7.218822105962e-29
-2.3707811344966e-28
-7.3926627782518e-28
-2.1865471335098e-27
-6.1275097420508e-27
-1.624968104142e-26
-4.0724329394155e-26
-9.6307813140283e-26
-2.1455944127919e-25
-4.4948263152794e-25
-8.836240924623e-25
-1.6263643347366e-24
-2.7954384471678e-24
-4.4741415421428e-24
-6.6462683427929e-24
-9.1293191603377e-24
-1.1546182628086e-23
-1.3379384950881e-23
-1.4123162014977e-23
-1.3488868391858e-23
-1.1562125499007e-23
-8.8069994817546e-24
-5.8887957182696e-24
-3.4030842228845e-24
-1.6653350760967e-24
-6.71118574959e-25
-2.1391876680947e-25
-5.0624136221091e-26
-7.9437431882035e-27
-6.4055062230784e-28
0
0
0
0
0
8.7175990084479e-115
5.6007654557944e-112
1.8312032027309e-109
-1.2139293438867e-106
-3.6636315535399e-102
-2.1196556187317e-99
-6.1103118901704e-97
-1.1639664417369e-94
-1.6468240480536e-92
-1.8456814290535e-90
-1.7070629163545e-88
-1.3404618617461e-86
-9.1251215604147e-85
-5.4721521502677e-83
-2.9276506988106e-81
-1.4118359519602e-79
-6.1891819753323e-78
-2.483935902142e-76
-9.181136014201e-75
-3.1412145011068e-73
-9.9910734120876e-72
-2.9650518012253e-70
-8.2359978854546e-69
-2.1469577250646e-67
-5.2643548267337e-66
-1.2165504932814e-64
-2.6540443789186e-63
-5.4740617744695e-62
-1.0687664458594e-60
-1.9774601163197e-59
-3.4706324778368e-58
-5.7831343855128e-57
-9.1561065150729e-56
-1.3783445337493e-54
-1.9741614580855e-53
-2.6917798937786e-52
-3.4959131708098e-51
-4.3267144799708e-50
-5.1053566019432e-49
-5.7456654272126e-48
-6.1696459531547e-47
-6.3230789517192e-46
-6.186884901279e-45
-5.7809756390568e-44
-5.1595349767331e-43
-4.3992535034836e-42
-3.5840088756864e-41
-2.7901485068024e-40
-2.075792187397e-39
-1.4758843326543e-38
-1.0028347949455e-37
-6.5117033653859e-37
-4.0402651467486e-36
-2.3950741648315e-35
-1.3562727259029e-34
-7.3349953612515e-34
-3.787591259465e-33
-1.866816083922e-32
-8.7792590134056e-32
-3.9377820816723e-31
-1.6837518884118e-30
-6.8597174530339e-30
-2.661199551529e-29
-9.8243393255961e-29
-3.4487644360286e-28
-1.1502780671208e-27
-3.6419031300397e-27
-1.0934678343416e-26
-3.1099696509182e-26
-8.3685283850852e-26
-2.1276460627058e-25
-5.103395810131e-25
-1.1529509884977e-24
-2.448820647463e-24
-4.879890174141e-24
-9.102876393397e-24
-1.5854452037006e-23
-2.5708461028056e-23
-3.8684433696182e-23
-5.3816833794548e-23
-6.8924140239498e-23
-8.0864238803457e-23
-8.6412463509626e-23
-8.3537825176344e-23
-7.2468635552399e-23
-5.5858488318278e-23
-3.7790544797965e-23
-2.209400230964e-23
-1.0937086125239e-23
-4.4581685776259e-24
-1.4372532422707e-24
-3.4400725606904e-25
-5.4608567914937e-26
-4.4619595750963e-27
-7.2343882743157e-29
0
0
0
0
0
8.9836376451155e-113
5.7109402347355e-110
1.8473152434002e-107
-7.8769682826359e-105
-2.7010149621407e-100
-1.5468285684895e-97
-4.4106654731602e-95
-8.307196307365e-93
-1.1614294597368e-90
-1.2853382416022e-88
-1.1728062582061e-86
-9.0753508735982e-85
-6.0801208836509e-83
-3.5830228496426e-81
-1.8806642509846e-79
-8.8818154792545e-78
-3.8059232122421e-76
-1.4901816606733e-74
-5.3632974549412e-73
-1.7834461694926e-71
-5.5035282257946e-70
-1.5821172675741e-68
-4.2510851713334e-67
-1.0707467001641e-65
-2.5345522800144e-64
-5.6507420252022e-63
-1.1888844918191e-61
-2.3644901901658e-60
-4.4518425156032e-59
-7.9452261689579e-58
-1.3456321654873e-56
-2.1648536409447e-55
-3.3112236195501e-54
-4.8187715346888e-53
-6.676710228937e-52
-8.8129883468888e-51
-1.1087773172025e-49
-1.3302257173032e-48
-1.5224459255387e-47
-1.662831067152e-46
-1.7337185392645e-45
-1.7260343049169e-44
-1.6411922393568e-43
-1.490702327114e-42
-1.2936297245138e-41
-1.0726720305195e-40
-8.4995611098648e-40
-6.4360231978883e-39
-4.6572917106881e-38
-3.2205583994955e-37
-2.1280489871253e-36
-1.3435035137133e-35
-8.1028816755826e-35
-4.6676961150718e-34
-2.5676057320943e-33
-1.3483346371297e-32
-6.7572692570226e-32
-3.2306368679449e-31
-1.4728722344107e-30
-6.400216718634e-30
-2.6493790633627e-29
-1.0441266204996e-28
-3.9150054656869e-28
-1.3955985916148e-27
-4.7258733049817e-27
-1.5188121207909e-26
-4.6279909697747e-26
-1.3355752393653e-25
-3.6458824969669e-25
-9.4017993522935e-25
-2.2868978213753e-24
-5.2383392381122e-24
-1.1278621899912e-23
-2.277971426807e-23
-4.3060687187085e-23
-7.5987956145357e-23
-1.248217629609e-22
-1.9024058188092e-22
-2.6802317485115e-22
-3.4757628606991e-22
-4.1285726217747e-22
-4.4660886672816e-22
-4.3700596943355e-22
-3.8366845728751e-22
-2.9925979909468e-22
-2.0485651329883e-22
-1.2117294359083e-22
-6.068176637231e-23
-2.5020959639447e-23
-8.159178787931e-24
-1.97535394971e-24
-3.1723890884827e-25
-2.6260265846855e-26
-4.4358358755348e-28
-7.4582288644891e-29
0
0
0
0
0
6.8697237559941e-111
4.3206032713494e-108
1.3824950967081e-105
-3.9476860976422e-103
-1.5750681671533e-98
-8.927519054743e-96
-2.5177892241296e-93
-4.6886777392953e-91
-6.4790278752977e-89
-7.0837017133748e-87
-6.3820080470825e-85
-4.8730391170289e-83
-3.2190278134447e-81
-1.8687977446956e-79
-9.6539111279582e-78
-4.4823937017765e-76
-1.8861826759005e-74
-7.2434615752732e-73
-2.5536774394458e-71
-8.3071264558767e-70
-2.5044590480242e-68
-7.0246626952701e-67
-1.8392934213914e-65
-4.509016733559e-64
-1.0376691867125e-62
-2.2469436342291e-61
-4.5875032945712e-60
-8.8471704845467e-59
-1.6142781822716e-57
-2.7907413442152e-56
-4.5769577074077e-55
-7.1290948095502e-54
-1.0556455049185e-52
-1.4873121258094e-51
-1.9953266384382e-50
-2.5505841310372e-49
-3.1083337456368e-48
-3.6132083531463e-47
-4.0079340310502e-46
-4.243925979005e-45
-4.2910866908494e-44
-4.1440858651739e-43
-3.8233205913147e-42
-3.3703261617775e-41
-2.8390456582129e-40
-2.2854624547862e-39
-1.7582949735464e-38
-1.292775003953e-37
-9.0834015298708e-37
-6.0986310960391e-36
-3.9122033156233e-35
-2.397426315161e-34
-1.4031876329584e-33
-7.8419910056915e-33
-4.1836125194615e-32
-2.1298330757978e-31
-1.0342897147248e-30
-4.7890874509835e-30
-2.1133195123756e-29
-8.8826440426847e-29
-3.5540218545888e-28
-1.3527135420949e-27
-4.8941294293089e-27
-1.6817870321095e-26
-5.4840015748469e-26
-1.6951951676375e-25
-4.96200584629e-25
-1.3736644564767e-24
-3.5917423782923e-24
-8.8569552088526e-24
-2.0563764314198e-23
-4.4870931814488e-23
-9.1830596933233e-23
-1.7586598563071e-22
-3.1436998572277e-22
-5.23019654047e-22
-8.0723656580549e-22
-1.1515463916236e-21
-1.5118728302781e-21
-1.8178959677174e-21
-1.9904526565783e-21
-1.9711620586769e-21
-1.7512985187432e-21
-1.3822412956976e-21
-9.5737582477545e-22
-5.7293423008434e-22
-2.9026623380285e-22
-1.2107611942366e-22
-3.993940009902e-23
-9.7814589835276e-24
-1.5893582273794e-24
-1.332636931197e-25
-2.3320401962826e-27
-3.9359897967509e-28
-3.2408663625908e-29
0
0
0
0
0
4.1571116942268e-109
2.5863888158473e-106
8.1854476496948e-104
-1.5762631949794e-101
-7.5665912178008e-97
-4.2441658103973e-94
-1.1837342408129e-91
-2.1793750699314e-89
-2.9765629185599e-87
-3.2154966304896e-85
-2.8612964105247e-83
-2.1569090998475e-81
-1.4059310202791e-79
-8.0493572990273e-78
-4.0981256992943e-76
-1.8740020381677e-74
-7.7604959621435e-73
-2.9304846318649e-71
-1.0149989182855e-69
-3.2408232801299e-68
-9.5808984552039e-67
-2.6325527491572e-65
-6.745707157308e-64
-1.6167708686907e-62
-3.634015123831e-61
-7.6782793345834e-60
-1.5282425762322e-58
-2.8706986872731e-57
-5.0977626295647e-56
-8.570792332196e-55
-1.3661389194667e-53
-2.0669093455351e-52
-2.9714159784535e-51
-4.0628553209817e-50
-5.2879534220729e-49
-6.5561785480229e-48
-7.748166827743e-47
-8.733195920349e-46
-9.3924800060108e-45
-9.6426272134967e-44
-9.4528861761407e-43
-8.8512822565632e-42
-7.9179739184532e-41
-6.7679585026578e-40
-5.5282062622605e-39
-4.3153852520569e-38
-3.2193566419308e-37
-2.2951887754619e-36
-1.5636294509989e-35
-1.0178004725156e-34
-6.3289714906532e-34
-3.7588462979794e-33
-2.1316546618566e-32
-1.1539582691653e-31
-5.9610672692532e-31
-2.937291436891e-30
-1.3799562358486e-29
-6.1781935448157e-29
-2.6344705514932e-28
-1.0692811611297e-27
-4.1281901366208e-27
-1.5148452726732e-26
-5.2790496485278e-26
-1.7455151121875e-25
-5.4705788729982e-25
-1.6233118608219e-24
-4.5550994584918e-24
-1.2070760318308e-23
-3.0162318719605e-23
-7.0953151939837e-23
-1.5684145510618e-22
-3.2512342819076e-22
-6.3059020583593e-22
-1.1414371294328e-21
-1.9227272724414e-21
-3.0042439526915e-21
-4.3381014295938e-21
-5.764616223352e-21
-7.0148479773489e-21
-7.7724343845077e-21
-7.7884377519713e-21
-7.0013694932877e-21
-5.5908604064019e-21
-3.9177022011561e-21
-2.371891560777e-21
-1.2156788348663e-21
-5.1298935051775e-22
-1.711904345525e-22
-4.2415383207188e-23
-6.9734896478708e-24
-5.9218656787031e-25
-1.0683581037678e-26
-1.8121152716404e-27
-1.5033224166844e-28
0
0
0
0
0
0
2.0733460072402e-107
1.275904488104e-104
3.9933697739018e-102
-5.0700003418939e-100
-3.0796787831284e-95
-1.7092149409158e-92
-4.7137869047125e-90
-8.5790986103059e-88
-1.1580126286176e-85
-1.2360059040968e-83
-1.0863779304176e-81
-8.0863071984622e-80
-5.2025891095278e-78
-2.9388128101732e-76
-1.4755367158853e-74
-6.6507117507033e-73
-2.7131927308262e-71
-1.0087052987409e-69
-3.4375273985217e-68
-1.0791857656126e-66
-3.1346986403558e-65
-8.4564770071774e-64
-2.125811441468e-62
-4.9943975199842e-61
-1.0995237814635e-59
-2.2735658157687e-58
-4.4249061552193e-57
-8.1210728951805e-56
-1.4079015594613e-54
-2.3091054683103e-53
-3.5877698930731e-52
-5.2875111930374e-51
-7.3995545585145e-50
-9.8427989424622e-49
-1.2455897482041e-47
-1.5007771082271e-46
-1.7228332288512e-45
-1.8854698995979e-44
-1.9682189507975e-43
-1.9606475847409e-42
-1.8644962744806e-41
-1.693141365618e-40
-1.468589337134e-39
-1.2169197118472e-38
-9.634546264112e-38
-7.2884846543215e-37
-5.268476745832e-36
-3.6387903477952e-35
-2.4011157151617e-34
-1.5135306838148e-33
-9.1118742525596e-33
-5.2378991762354e-32
-2.8741685788916e-31
-1.5049553894102e-30
-7.5165614334481e-30
-3.5793441705277e-29
-1.624263263772e-28
-7.0199255289089e-28
-2.8877459295311e-27
-1.129884870332e-26
-4.2017038581502e-26
-1.483769592102e-25
-4.971123408347e-25
-1.5785089157384e-24
-4.7452314592994e-24
-1.348809038148e-23
-3.6202364988723e-23
-9.1615063263986e-23
-2.1823379010096e-22
-4.8843458504264e-22
-1.0250278362994e-21
-2.012441810208e-21
-3.6869288938203e-21
-6.2851692841306e-21
-9.937421655252e-21
-1.451890681103e-20
-1.9519175708908e-20
-2.4028849642151e-20
-2.6932004928221e-20
-2.7298536363971e-20
-2.4822050622421e-20
-2.004911813795e-20
-1.4210661124081e-20
-8.7027309664999e-21
-4.5120644271552e-21
-1.92611835341e-21
-6.5027671666879e-22
-1.6301158371041e-22
-2.7119851685479e-23
-2.3321549204127e-24
-4.3182104746361e-26
-7.3692073053652e-27
-6.166032912903e-28
0
0
0
0
0
0
0
8.7650662119545e-106
5.3344831285879e-103
1.6509305615479e-100
-1.2953932170148e-98
-1.0839504950908e-93
-5.9516103742771e-91
-1.6227513346246e-88
-2.9191382537349e-86
-3.8936859835577e-84
-4.1058448172607e-82
-3.5644116508552e-80
-2.6197598046656e-78
-1.6638040314806e-76
-9.2742763194753e-75
-4.5932921580415e-73
-2.0414306054356e-71
-8.2082740935431e-70
-3.0063401008632e-68
-1.008802450874e-66
-3.1168200223654e-65
-8.9047659419541e-64
-2.361401546432e-62
-5.8316150862751e-61
-1.3450848499536e-59
-2.9052417759367e-58
-5.8897415046053e-57
-1.1230441339061e-55
-2.0178929628817e-54
-3.4224237733895e-53
-5.4873910964646e-52
-8.3289932561169e-51
-1.1982670821398e-49
-1.6358239922344e-48
-2.1211933589033e-47
-2.6150433417809e-46
-3.067503664032e-45
-3.4261986407357e-44
-3.6461812008331e-43
-3.6991717844576e-42
-3.5794848108056e-41
-3.304942805625e-40
-2.9126082006584e-39
-2.4507158279453e-38
-1.9691846150966e-37
-1.5112103839227e-36
-1.1077562548627e-35
-7.756289797053e-35
-5.1872673048169e-34
-3.3132726817515e-33
-2.0208964252182e-32
-1.1768171791306e-31
-6.540894465523e-31
-3.4688766619549e-30
-1.7546861577926e-29
-8.4621092398502e-29
-3.8887477828749e-28
-1.7019585549424e-27
-7.0896332461477e-27
-2.8088695398791e-26
-1.0576398371343e-25
-3.7815826910088e-25
-1.2827236200391e-24
-4.1235392998074e-24
-1.2548578049583e-23
-3.6105002495312e-23
-9.8083485781658e-23
-2.5120418399891e-22
-6.0553493660672e-22
-1.3713074098839e-21
-2.9115736241863e-21
-5.7827051707421e-21
-1.0716190394734e-20
-1.8476280325335e-20
-2.9542694802654e-20
-4.3646606350652e-20
-5.9331530827061e-20
-7.3848137206373e-20
-8.3683907014934e-20
-8.575792932176e-20
-7.8839017008707e-20
-6.4385370271224e-20
-4.6145277696487e-20
-2.8578166065234e-20
-1.4985617681913e-20
-6.4708904814787e-21
-2.2101605003219e-21
-5.6059514174286e-22
-9.4382856359072e-23
-8.217891562243e-24
-1.5546844417814e-25
-2.6729179501311e-26
-2.2588633707767e-27
0
0
0
0
0
0
0
0
3.2058261557041e-104
1.9293603546552e-101
5.9034519537715e-99
-2.4428524367093e-97
-3.351121107691e-92
-1.8200382771885e-89
-4.9053644189416e-87
-8.7203856908315e-85
-1.149243192677e-82
-1.1971010224257e-80
-1.0263477790377e-78
-7.4480015476312e-77
-4.6691329837599e-75
-2.5682924178923e-73
-1.2548255479183e-71
-5.499747196891e-70
-2.1799771295514e-68
-7.8679621540627e-67
-2.6006096557198e-65
-7.91106798666e-64
-2.2243254323874e-62
-5.8020953678073e-61
-1.4087006909955e-59
-3.1927084213174e-58
-6.772141365905e-57
-1.3474689431447e-55
-2.5201922097794e-54
-4.4389117869709e-53
-7.3751975162871e-52
-1.1576599626898e-50
-1.7190623228275e-49
-2.4179199025717e-48
-3.2249053209153e-47
-4.0827704544081e-46
-4.9107839977029e-45
-5.6164174886357e-44
-6.1122045377593e-43
-6.3335643622793e-42
-6.2525700699173e-41
-5.8836269757514e-40
-5.2795031547094e-39
-4.5191583200595e-38
-3.691175489686e-37
-2.8774778640326e-36
-2.1412577586258e-35
-1.5211688668965e-34
-1.0316964508524e-33
-6.680051772378e-33
-4.1287768514056e-32
-2.4356224136936e-31
-1.3710448029118e-30
-7.362500345123e-30
-3.7703550058267e-29
-1.8405411779461e-28
-8.560706614003e-28
-3.7917463660124e-27
-1.5983381237345e-26
-6.4076652452813e-26
-2.4411870402171e-25
-8.8308977820253e-25
-3.0304376881167e-24
-9.8549707257462e-24
-3.0336300189045e-23
-8.8284756811799e-23
-2.4256537635267e-22
-6.2825430234685e-22
-1.5313746493164e-21
-3.5064354125654e-21
-7.5266279896009e-21
-1.5111128283739e-20
-2.8304192134818e-20
-4.93198845303e-20
-7.9691247301457e-20
-1.1896664021429e-19
-1.6339677169002e-19
-2.0547556187584e-19
-2.3524376131488e-19
-2.4356498243407e-19
-2.2624212156414e-19
-1.8670614948422e-19
-1.3524027415464e-19
-8.4665855092275e-20
-4.4889807947313e-20
-1.9604242279099e-20
-6.7738628673786e-21
-1.7385583857553e-21
-2.9623677022468e-22
-2.6110892837018e-23
-5.0224275534041e-25
-8.7139624535331e-26
-7.4520262343511e-27
0
0
0
0
0
0
0
0
0
1.0304069443328e-102
6.1314431176987e-100
1.8546046853753e-97
-2.2785985532779e-96
-9.2125385210979e-91
-4.9483920239386e-88
-1.3181177015133e-85
-2.3152969839032e-83
-3.0142652969239e-81
-3.1010594803639e-79
-2.6253705934448e-77
-1.8808474917659e-75
-1.1637558445009e-73
-6.3163831723204e-72
-3.044278305578e-70
-1.3158036425797e-68
-5.1417317077454e-67
-1.8288653955612e-65
-5.9552559458544e-64
-1.7840236566604e-62
-4.9377489942191e-61
-1.267348552574e-59
-3.026328790389e-58