/*--------------------------------*- C++ -*----------------------------------*\
| =========                 |                                                 |
| \\      /  F ield         | OpenFOAM: The Open Source CFD Toolbox           |
|  \\    /   O peration     | Version:  2106                                  |
|   \\  /    A nd           | Website:  www.openfoam.com                      |
|    \\/     M anipulation  |                                                 |
\*---------------------------------------------------------------------------*/
FoamFile
{
    version     2.0;
    format      ascii;
    arch        "LSB;label=32;scalar=64";
    class       volScalarField;
    location    "4";
    object      alpha.water;
}
// * * * * * * * * * * * * * * * * * * * * * * * * * * * * * * * * * * * * * //

dimensions      [0 0 0 0 0 0 0];

internalField   nonuniform List<scalar> 
6000
(
0
0
0
0
0
0
0
0
0
0
0
0
0
0
0
0
0
0
0
0
0
0
0
0
0
0
0
0
0
0
0
0
0
0
0
0
0
0
0
0
0
0
0
0
0
0
0
0
0
0
0
0
0
0
0
0
0
0
0
0
0
0
0
0
0
0
0
0
0
0
0
0
0
0
0
0
0
0
0
0
0
0
0
0
0
0
0
0
0
0
0
0
0
0
0
0
0
0
0
0
0
0
0
0
0
0
0
0
0
0
0
0
0
0
0
0
0
0
0
0
0
0
0
0
0
0
0
0
0
0
0
0
0
0
0
0
0
0
0
0
0
0
0
0
0
0
0
0
0
0
0
0
0
0
0
0
0
0
0
0
0
0
0
0
0
0
0
0
0
0
0
0
0
0
0
0
0
0
0
0
0
0
0
0
0
0
0
0
0
0
0
0
0
0
0
0
0
0
0
0
0
0
0
0
0
0
0
0
0
0
0
0
0
0
0
0
0
0
0
0
0
0
0
0
0
0
0
0
0
0
0
0
0
0
0
0
0
0
0
0
0
0
0
0
0
0
0
0
0
0
0
0
0
0
0
0
0
0
0
0
0
0
0
0
0
0
0
0
0
0
0
0
0
0
0
0
0
0
0
0
0
0
0
0
0
0
0
0
0
0
0
0
0
0
0
0
0
0
0
0
0
0
0
0
0
0
0
0
0
0
0
0
0
0
0
0
0
0
0
0
0
0
0
0
0
0
0
0
0
0
0
0
0
0
0
0
0
0
0
0
0
0
0
0
0
0
0
0
0
0
0
0
0
0
0
0
0
0
0
0
0
0
0
0
0
0
0
0
0
0
0
0
0
0
0
0
0
0
0
0
0
0
0
0
0
0
0
0
0
0
0
0
0
0
0
0
0
0
0
0
0
0
0
0
0
0
0
0
0
0
0
0
0
0
0
0
0
0
0
0
0
0
0
0
0
0
0
0
0
0
0
0
0
0
0
0
0
0
0
0
0
0
0
0
0
0
0
0
0
0
0
0
0
0
0
0
0
0
0
0
0
0
0
0
0
0
0
0
0
0
0
0
0
0
0
0
0
0
0
0
0
0
0
0
0
0
0
0
0
0
0
0
0
0
0
0
0
0
0
0
0
0
0
0
0
0
0
-1.0346140688773e-163
4.4648641777311e-159
3.8416493642653e-156
1.6289715625392e-153
6.4483255904829e-151
2.5679717390181e-148
8.4513747210388e-146
2.1497284768274e-143
4.2974693783479e-141
6.9700644718056e-139
9.4384129511498e-137
1.0919464243896e-134
1.0991266838893e-132
9.7663891898671e-131
7.7508404863629e-129
5.547144269584e-127
3.6089087848681e-125
2.1488470775033e-123
1.1777874678811e-121
5.9720704840755e-120
2.8136146565026e-118
1.2363484456196e-116
5.084132995454e-115
1.9624317908103e-113
7.1291686299042e-112
2.4434172338349e-110
7.918035739096e-109
2.4308443384201e-107
7.0826969511983e-106
1.9618073205898e-104
5.1735040483257e-103
1.300724732234e-101
3.1218503563797e-100
7.1610406299823e-99
1.5716304985379e-97
3.3034910646696e-96
6.6565739292791e-95
1.2869482969131e-93
2.3892171237125e-92
4.2624728807194e-91
7.3128086373288e-90
1.2072797299905e-88
1.9191029297533e-87
2.9390242556702e-86
4.3386443767677e-85
6.1768492574856e-84
8.4848412371507e-83
1.1250515209549e-81
1.4405507771304e-80
1.781868719666e-79
2.1299331182385e-78
2.4611651182357e-77
2.7499906343346e-76
2.9720680764399e-75
3.1076738395487e-74
3.1445925144366e-73
3.0799248434777e-72
2.9204442204193e-71
2.681445826818e-70
2.384355298844e-69
2.0536089353641e-68
1.7134247102432e-67
1.3850368870199e-66
1.0847963502254e-65
8.233041562205e-65
6.0551583836868e-64
4.3158369022691e-63
2.9812160755137e-62
1.9958083159593e-61
1.2949190963826e-60
8.1425388464053e-60
4.962024021516e-59
2.9303639499988e-58
1.676961863796e-57
9.2989154890394e-57
4.9958652053187e-56
2.6002395454117e-55
1.3109562165509e-54
6.4014152977732e-54
3.0269852392238e-53
1.3858527218575e-52
6.14206772266e-52
2.6345907811045e-51
1.0934900514325e-50
4.3904911920836e-50
1.7048752395381e-49
6.4007175270278e-49
2.3226669835526e-48
8.1437226839381e-48
2.7579197042119e-47
9.0177154295854e-47
2.8457027147899e-46
8.6630323936441e-46
0
0
0
0
0
0
0
-4.649637320835e-161
1.8449498567086e-156
1.5760507638741e-153
1.0867061990474e-150
6.3305134743248e-148
-1.5560954631229e-144
-1.4445046298686e-141
-6.1471116709684e-139
-1.7049605667928e-136
-3.5009919816612e-134
-5.692164692068e-132
-7.6403552278492e-130
-8.7116820694596e-128
-8.6152525769655e-126
-7.5071672002699e-124
-5.836106498807e-122
-4.0884920767087e-120
-2.6024432175759e-118
-1.5155845216559e-116
-8.1228803329729e-115
-4.026824513493e-113
-1.8545605112015e-111
-7.9654739624038e-110
-3.2014407785932e-108
-1.2076733247738e-106
-4.2873773566951e-105
-1.4358916845587e-103
-4.5466001552442e-102
-1.3637844524329e-100
-3.8822186454992e-99
-1.0505165760101e-97
-2.7062489804552e-96
-6.6462144425222e-95
-1.5580264949753e-93
-3.4904269051957e-92
-7.480941254154e-91
-1.535478745247e-89
-3.0209632178542e-88
-5.7021211907277e-87
-1.0333934919174e-85
-1.7995251552947e-84
-3.0131126276871e-83
-4.8542233474462e-82
-7.5289374300005e-81
-1.1248691679717e-79
-1.6197688352198e-78
-2.2490526232187e-77
-3.0125906103264e-76
-3.8945681120222e-75
-4.8610391032235e-74
-5.8601587448516e-73
-6.8257198397236e-72
-7.6839372515895e-71
-8.3626229816018e-70
-8.8011973291947e-69
-8.9596123646686e-68
-8.824365423935e-67
-8.4103556499681e-66
-7.7582397681622e-65
-6.9279244503356e-64
-5.9896216836879e-63
-5.0142893670114e-62
-4.0652103985918e-61
-3.191999197191e-60
-2.4276374621703e-59
-1.7884394205289e-58
-1.2763063705296e-57
-8.8234794121979e-57
-5.9092996876393e-56
-3.8339227925013e-55
-2.4096555923617e-54
-1.4670905878027e-53
-8.6522348256759e-53
-4.9424360592035e-52
-2.7343873351182e-51
-1.4650173373146e-50
-7.6004514151103e-50
-3.8176180526277e-49
-1.8562516674088e-48
-8.7357340072035e-48
-3.9783115214083e-47
-1.7528519099445e-46
-7.4703364543052e-46
-3.0787606936664e-45
-1.2266915987522e-44
-4.7237997636022e-44
-1.7575462848818e-43
-6.3158664707548e-43
-2.1913421486683e-42
-7.3378127574089e-42
-2.3703775161663e-41
-7.3835385702597e-41
-2.2166386850537e-40
0
0
0
0
0
8.6763044451643e-163
7.2460812268982e-160
2.948546056411e-157
4.6435526735845e-154
3.3901875334621e-151
3.1430498340097e-148
-5.6655710314927e-146
-8.9630766980861e-142
-6.9935344619867e-139
-2.8030700039284e-136
-7.5166544982561e-134
-1.5075312757585e-131
-2.4059681832278e-129
-3.1789668740315e-127
-3.574255149253e-125
-3.4894119433859e-123
-3.0039575654131e-121
-2.308379584829e-119
-1.599114282928e-117
-1.0068145513753e-115
-5.8007805468342e-114
-3.076209371657e-112
-1.5090753671948e-110
-6.8779655819477e-109
-2.9236025886115e-107
-1.1629142797429e-105
-4.3415770589461e-104
-1.5253855514318e-102
-5.0557815395417e-101
-1.5842233825505e-99
-4.7023925007813e-98
-1.3245661350498e-96
-3.5464273814744e-95
-9.0390267090335e-94
-2.1961539594449e-92
-5.0928893327383e-91
-1.1285822759433e-89
-2.3924258773289e-88
-4.8563949484326e-87
-9.4484834086022e-86
-1.7634223731914e-84
-3.1596857306885e-83
-5.4393585007795e-82
-9.0026088109729e-81
-1.4334614467392e-79
-2.1971592652469e-78
-3.2436809701491e-77
-4.6146890031776e-76
-6.3297363395237e-75
-8.3746051623346e-74
-1.069206583515e-72
-1.3177943540929e-71
-1.5684851698851e-70
-1.8034597432556e-69
-2.0038320142532e-68
-2.1521380380543e-67
-2.2348483355822e-66
-2.2444023920982e-65
-2.1803417151545e-64
-2.0493077192518e-63
-1.8639214742424e-62
-1.6408037698215e-61
-1.3981604169525e-60
-1.1534096181322e-59
-9.2126285311157e-59
-7.1251937317951e-58
-5.3364842014464e-57
-3.8706529119201e-56
-2.7189516387471e-55
-1.8497695798393e-54
-1.218810526246e-53
-7.7777427428042e-53
-4.8068330813943e-52
-2.8769658860321e-51
-1.667460235909e-50
-9.3581277353066e-50
-5.0850516929308e-49
-2.6750221818562e-48
-1.3621660025254e-47
-6.713368622913e-47
-3.2017534359354e-46
-1.4773828226521e-45
-6.5942934007486e-45
-2.8465380138684e-44
-1.1880465741959e-43
-4.792944492299e-43
-1.8685232620844e-42
-7.0369761039175e-42
-2.5592836726383e-41
-8.9853987213383e-41
-3.044195138077e-40
-9.9481102077831e-40
-3.1343302578551e-39
-9.5164192094075e-39
-2.7829159765074e-38
0
0
0
0
0
3.686163084456e-160
3.0537357035625e-157
1.2606148719558e-154
8.6989671792275e-152
5.0677526059207e-149
-1.383271768486e-145
-2.2975476878592e-142
-2.9786315346592e-139
-1.8071685587129e-136
-6.5991287696884e-134
-1.6845441065784e-131
-3.2725442446775e-129
-5.1017587539283e-127
-6.6149365809736e-125
-7.3186098230759e-123
-7.0429931857438e-121
-5.9836391151513e-119
-4.5414279266796e-117
-3.1090142986122e-115
-1.9351986439297e-113
-1.1026086025197e-111
-5.7836295650725e-110
-2.8067890839944e-108
-1.2656625766237e-106
-5.323102876151e-105
-2.0950780351651e-103
-7.739513928394e-102
-2.6906626476871e-100
-8.8241846487094e-99
-2.7358801732841e-97
-8.0348335917452e-96
-2.2391744678415e-94
-5.9311236661524e-93
-1.4954481902427e-91
-3.5940622486166e-90
-8.2437891754037e-89
-1.806758086126e-87
-3.7876644904257e-86
-7.6027939941593e-85
-1.4625325052398e-83
-2.6986094376239e-82
-4.7799357171776e-81
-8.1334112896996e-80
-1.3304266713622e-78
-2.0934132479773e-77
-3.1704726369713e-76
-4.6242309157283e-75
-6.4986982093588e-74
-8.8042827859812e-73
-1.1503691682266e-71
-1.4502315060771e-70
-1.7646664139444e-69
-2.0733337953227e-68
-2.3528906127368e-67
-2.5798457391525e-66
-2.7338100351992e-65
-2.8005194856162e-64
-2.7740098283357e-63
-2.6574844808268e-62
-2.4627034476024e-61
-2.20804951382e-60
-1.9157070863397e-59
-1.6085448350491e-58
-1.3072938448071e-57
-1.0284748637886e-56
-7.8330585432639e-56
-5.7758456243544e-55
-4.1235205238168e-54
-2.8503857112339e-53
-1.9077839513991e-52
-1.2363594356942e-51
-7.7578776095033e-51
-4.7131257722219e-50
-2.7721773817844e-49
-1.5785175218119e-48
-8.7007603216039e-48
-4.6419426881515e-47
-2.3967608027844e-46
-1.1974891596737e-45
-5.7885786818828e-45
-2.7067543265468e-44
-1.2240995616345e-43
-5.3528018941755e-43
-2.2627594152748e-42
-9.2443205008943e-42
-3.648947234408e-41
-1.3911764303889e-40
-5.121225722073e-40
-1.8196428391167e-39
-6.2380684841145e-39
-2.062453521496e-38
-6.573441982829e-38
-2.0186737555215e-37
-5.9700578336684e-37
-1.6993697089781e-36
0
0
0
0
0
7.7687437586401e-158
6.3966906377665e-155
2.6397469693947e-152
-1.5181766882427e-147
-3.4848387423134e-143
-2.8254148275742e-140
-1.1522854295449e-137
-3.1451853930659e-135
-6.4967743718286e-133
-1.0891201249371e-130
-1.5492543437769e-128
-1.9253520812442e-126
-2.1299195833162e-124
-2.1217829854373e-122
-1.916856285341e-120
-1.5777007205764e-118
-1.1871774292773e-116
-8.1923370525795e-115
-5.2002236606166e-113
-3.0457357972882e-111
-1.6510378672091e-109
-8.3087768886877e-108
-3.8932567995197e-106
-1.7033702942842e-104
-6.9772245930888e-103
-2.6823778372236e-101
-9.7013946337726e-100
-3.3080155085337e-98
-1.0655997192111e-96
-3.2488053913337e-95
-9.3908802406554e-94
-2.5777239906026e-92
-6.7291061628309e-91
-1.6728827271273e-89
-3.9656449834001e-88
-8.9746135454585e-87
-1.941101178968e-85
-4.0165618407807e-84
-7.9587914047252e-83
-1.5115072179414e-81
-2.75360442602e-80
-4.815646201057e-79
-8.0905906023188e-78
-1.3066777930429e-76
-2.0299714665904e-75
-3.0352664004218e-74
-4.3704329631855e-73
-6.0630652994132e-72
-8.1078283835017e-71
-1.0455664647991e-69
-1.3007999019256e-68
-1.5618720301343e-67
-1.8105431957142e-66
-2.0269444004878e-65
-2.1921710910088e-64
-2.2910074953958e-63
-2.3142372090492e-62
-2.2600540101452e-61
-2.1342752108762e-60
-1.9493276646969e-59
-1.7222477759738e-58
-1.4721359739053e-57
-1.2175833269462e-56
-9.7453379457042e-56
-7.548900285954e-55
-5.6596876200397e-54
-4.1072300286898e-53
-2.8851716549555e-52
-1.9618741665419e-51
-1.2913704737059e-50
-8.2282349038043e-50
-5.0748954232006e-49
-3.0296542498985e-48
-1.7505640757621e-47
-9.7892112725173e-47
-5.2973682103106e-46
-2.7737385513885e-45
-1.4050955702035e-44
-6.8851755271025e-44
-3.2630094854955e-43
-1.4953141922928e-42
-6.6246812656082e-42
-2.836705199879e-41
-1.1737312483024e-40
-4.6914470091979e-40
-1.8109085236876e-39
-6.7483024109093e-39
-2.4268671795297e-38
-8.4194508923745e-38
-2.8166161864362e-37
-9.0820483152742e-37
-2.8212634458942e-36
-8.4388455667728e-36
-2.4291883766293e-35
-6.7254202390029e-35
0
0
0
0
0
7.7070212278302e-154
6.7455107869e-151
2.9762993068193e-148
-5.4600194536614e-145
-1.4445798194788e-140
-1.1620846377834e-137
-4.691775309049e-135
-1.259306228374e-132
-2.5281653960045e-130
-4.0543389273713e-128
-5.4180211643741e-126
-6.2144032772082e-124
-6.2520221771407e-122
-5.6081753796759e-120
-4.5420099472567e-118
-3.3533696160645e-116
-2.2736999212827e-114
-1.4238880832887e-112
-8.2724038282235e-111
-4.4743013707231e-109
-2.259448898422e-107
-1.0678743844762e-105
-4.7337742734093e-104
-1.9720059408185e-102
-7.7340295161842e-101
-2.860482221336e-99
-9.9933466431468e-98
-3.3028672019393e-96
-1.0342357853088e-94
-3.0726036788007e-93
-8.6722760345745e-92
-2.3283661996323e-90
-5.9536688017279e-89
-1.4515393830918e-87
-3.3779412275982e-86
-7.5109777677338e-85
-1.5972711806942e-83
-3.251554443961e-82
-6.3416584226355e-81
-1.1859361679871e-79
-2.1281033627673e-78
-3.6669374021887e-77
-6.0712942782962e-76
-9.6648675371881e-75
-1.480131565428e-73
-2.1818832212255e-72
-3.0974997219347e-71
-4.236889010031e-70
-5.5864089478527e-69
-7.1031172724659e-68
-8.7129312974264e-67
-1.0314192959844e-65
-1.1787106275036e-64
-1.3008123456439e-63
-1.3866975619402e-62
-1.4283106676762e-61
-1.4218114169791e-60
-1.3681539982158e-59
-1.2728813703335e-58
-1.1451922508912e-57
-9.964957883845e-57
-8.3876426118929e-56
-6.8300585967465e-55
-5.3811330429579e-54
-4.1022744965031e-53
-3.0262623111845e-52
-2.1604330947528e-51
-1.4925930793211e-50
-9.9796376730974e-50
-6.4574303258104e-49
-4.0435944540969e-48
-2.4503158968243e-47
-1.436809696412e-46
-8.1520614155954e-46
-4.4749392870843e-45
-2.3763525958156e-44
-1.2206271361165e-43
-6.0637267181503e-43
-2.9127833463078e-42
-1.3527184472809e-41
-6.0722120047854e-41
-2.6340676761438e-40
-1.1039206364118e-39
-4.4684812896235e-39
-1.7464767788331e-38
-6.5887789071161e-38
-2.3984631995642e-37
-8.4213479533263e-37
-2.8508343290039e-36
-9.3006165386327e-36
-2.9227642642165e-35
-8.8429137408749e-35
-2.5744062622923e-34
-7.2074477109369e-34
-1.9392419930484e-33
0
0
0
0
0
3.2475210533839e-151
2.8224451421124e-148
1.2365174171602e-145
-9.4080107019294e-143
-2.9697597081898e-138
-2.3723416460324e-135
-9.4984476180089e-133
-2.5241983874007e-130
-5.0042766740033e-128
-7.8959409207109e-126
-1.0333546584415e-123
-1.1544295733243e-121
-1.1245321921811e-119
-9.7081996216811e-118
-7.5241341075373e-116
-5.2896220119824e-114
-3.4018142423712e-112
-2.0152402617799e-110
-1.1060094462715e-108
-5.6501975404671e-107
-2.6974234813701e-105
-1.2073693890882e-103
-5.0808229051676e-102
-2.0148718369341e-100
-7.5449232409323e-99
-2.672514935452e-97
-8.9685327811948e-96
-2.8554194219509e-94
-8.6362389745084e-93
-2.4842933132562e-91
-6.8043665446146e-90
-1.7763705780708e-88
-4.4245590565242e-87
-1.0524566506268e-85
-2.3928918022093e-84
-5.2046829708224e-83
-1.0838458986421e-81
-2.1625950132702e-80
-4.1374520065196e-79
-7.5952223977823e-78
-1.3386957394574e-76
-2.2668678980508e-75
-3.6900143289042e-74
-5.7773401368791e-73
-8.7046808914397e-72
-1.2627480958261e-70
-1.764496682322e-69
-2.3760434103095e-68
-3.0845705801499e-67
-3.861961767184e-66
-4.6649750507307e-65
-5.4383031527716e-64
-6.120468619541e-63
-6.6517771636535e-62
-6.9829267486565e-61
-7.0825526792885e-60
-6.9421088645278e-59
-6.5770369852138e-58
-6.0240120700174e-57
-5.334935082413e-56
-4.5690203221654e-55
-3.7846222823801e-54
-3.0323159567157e-53
-2.3502712076676e-52
-1.7623192558031e-51
-1.2784922202828e-50
-8.9737655030076e-50
-6.0942901408948e-49
-4.0044641865989e-48
-2.5458457719653e-47
-1.5659289175399e-46
-9.3184242010974e-46
-5.3643093800148e-45
-2.987092080883e-44
-1.6087974959623e-43
-8.3795071025778e-43
-4.2202468580377e-42
-2.0548915319374e-41
-9.6714623201631e-41
-4.3990507911476e-40
-1.9332647781039e-39
-8.2069417525462e-39
-3.364425433319e-38
-1.3315308127543e-37
-5.0858356130295e-37
-1.8740987799739e-36
-6.6600516897031e-36
-2.2816052705042e-35
-7.5316510503029e-35
-2.3945334141244e-34
-7.3284348987979e-34
-2.1578588217869e-33
-6.1094226608009e-33
-1.6621387040915e-32
-4.3423827029874e-32
0
0
0
0
0
6.8470155931047e-149
5.9054021300112e-146
2.5672491506908e-143
-1.0244804465587e-140
-4.0371154164568e-136
-3.2029992069734e-133
-1.2721990978647e-130
-3.3514977224969e-128
-6.5802675910656e-126
-1.0268554154751e-123
-1.3268152336893e-121
-1.4604260988652e-119
-1.3982708946278e-117
-1.1833435770297e-115
-8.9650936058306e-114
-6.143238973459e-112
-3.8400160367271e-110
-2.2052283116905e-108
-1.1705019860927e-106
-5.7718242472589e-105
-2.6557004112633e-103
-1.144467660569e-101
-4.6343907199359e-100
-1.7683176835427e-98
-6.3731987872513e-97
-2.1741911050526e-95
-7.0336224046731e-94
-2.1612393104124e-92
-6.3166976919619e-91
-1.7583080787945e-89
-4.6667702747255e-88
-1.1822450650697e-86
-2.8614297273077e-85
-6.6225603544547e-84
-1.4668698867251e-82
-3.1118041010879e-81
-6.3270259518256e-80
-1.2338071417649e-78
-2.3090453684837e-77
-4.1497068547321e-76
-7.1655655631412e-75
-1.1895067662142e-73
-1.8992828998625e-72
-2.9182990863886e-71
-4.3170502235199e-70
-6.1510660454614e-69
-8.4449661585149e-68
-1.11762899379e-66
-1.4262893863928e-65
-1.7558047095962e-64
-2.0856537708758e-63
-2.3913069860915e-62
-2.647135891888e-61
-2.8299373068149e-60
-2.9224047095935e-59
-2.9158269527774e-58
-2.811432089354e-57
-2.6200913360223e-56
-2.3604716811759e-55
-2.0560675819502e-54
-1.7317578135699e-53
-1.4105724554587e-52
-1.1112245401918e-51
-8.4671764235169e-51
-6.2406588543803e-50
-4.449329234749e-49
-3.0686027041014e-48
-2.0472509170974e-47
-1.3212364047567e-46
-8.2481437385887e-46
-4.9805543367933e-45
-2.9088191186124e-44
-1.6429988476652e-43
-8.9741896606442e-43
-4.7395644035041e-42
-2.4199489420479e-41
-1.1943437956772e-40
-5.696785059913e-40
-2.6255508214965e-39
-1.1689729830007e-38
-5.0266131717956e-38
-2.086972164367e-37
-8.3637415854602e-37
-3.2343622950126e-36
-1.2065085912964e-35
-4.3397334240394e-35
-1.5045639840584e-34
-5.0255484912515e-34
-1.616504662191e-33
-5.004618028265e-33
-1.4904877632523e-32
-4.2677055858708e-32
-1.174072147107e-31
-3.1012325655453e-31
-7.8595106367282e-31
0
0
0
0
0
9.5618144971962e-147
8.1826968990572e-144
3.5293278214693e-141
-7.71900973502e-139
-4.0824373119986e-134
-3.2169558681386e-131
-1.2676510649022e-128
-3.3116594772238e-126
-6.4445910127099e-124
-9.9615318115728e-122
-1.2739125512299e-119
-1.3864163666606e-117
-1.310961704742e-115
-1.0942739916421e-113
-8.1650589826949e-112
-5.5019504710259e-110
-3.3764506709159e-108
-1.9005004428221e-106
-9.8709226531853e-105
-4.7553175346278e-103
-2.1344269893051e-101
-8.9610691108577e-100
-3.5310156836904e-98
-1.3097974404264e-96
-4.5858585284398e-95
-1.5190127512556e-93
-4.7700314809401e-92
-1.4226326746206e-90
-4.0362664026131e-89
-1.0909604925925e-87
-2.8128085390164e-86
-6.9258846860582e-85
-1.6302957263319e-83
-3.6721693389655e-82
-7.9216613098631e-81
-1.6378993844426e-79
-3.2482392177807e-78
-6.1828261517187e-77
-1.1302426087398e-75
-1.9854124504878e-74
-3.3531774525542e-73
-5.4476165850717e-72
-8.5173545129634e-71
-1.2821615129416e-69
-1.8590913550739e-68
-2.5974556243823e-67
-3.4981968645999e-66
-4.5429578978177e-65
-5.6907820268314e-64
-6.8782108525074e-63
-8.0236545683725e-62
-9.0360100577825e-61
-9.8264196492908e-60
-1.0321110213647e-58
-1.0472746298113e-57
-1.0267876981608e-56
-9.7288586565205e-56
-8.9098841143857e-55
-7.8880832975807e-54
-6.7517008148079e-53
-5.5878258082768e-52
-4.4719705713955e-51
-3.4610878576157e-50
-2.5906449142345e-49
-1.8754326454812e-48
-1.3131152343285e-47
-8.8923013238601e-47
-5.8241195873503e-46
-3.689254113543e-45
-2.2600544350462e-44
-1.3388857142447e-43
-7.6696732601006e-43
-4.247911975578e-42
-2.2745101845103e-41
-1.1772104890527e-40
-5.8885152650618e-40
-2.8462019263502e-39
-1.3290689208303e-38
-5.9945339030162e-38
-2.6108618199947e-37
-1.0977845271195e-36
-4.4548039536698e-36
-1.7441373855765e-35
-6.5860338949363e-35
-2.3977096425407e-34
-8.4124727517952e-34
-2.8432590573145e-33
-9.2527614962512e-33
-2.8978058160312e-32
-8.729195023456e-32
-2.5277386850563e-31
-7.0318558115737e-31
-1.8779907960214e-30
-4.811561933748e-30
-1.1816987759863e-29
0
0
0
0
0
9.939205656289e-145
8.4387411238855e-142
3.6108646017295e-139
-4.0205033401186e-137
-3.2754168979464e-132
-2.5634317341119e-129
-1.0021443433756e-126
-2.5964523450061e-124
-5.0095353140725e-122
-7.6741905544772e-120
-9.7219107492703e-118
-1.0475469256226e-115
-9.8007657289761e-114
-8.0885256652347e-112
-5.9624055735743e-110
-3.9656008242305e-108
-2.3997398564949e-106
-1.3305779050358e-104
-6.8004655126286e-103
-3.2203262621697e-101
-1.4192921001216e-99
-5.8446726302881e-98
-2.2566700248806e-96
-8.1945688385244e-95
-2.8061902271912e-93
-9.0843856501236e-92
-2.7861460774991e-90
-8.1112152029757e-89
-2.2454247172129e-87
-5.9199945986586e-86
-1.4885575658484e-84
-3.5742257859269e-83
-8.2047796211512e-82
-1.8024745292992e-80
-3.7931051711304e-79
-7.6526671958619e-78
-1.4813522710137e-76
-2.7531975389098e-75
-4.9162021651749e-74
-8.4390218924195e-73
-1.393351236047e-71
-2.2138741844997e-70
-3.3866502562419e-69
-4.989985046442e-68
-7.0845545546603e-67
-9.6955149759328e-66
-1.2794506240221e-64
-1.6285806623661e-63
-2.0001246508244e-62
-2.3707545317619e-61
-2.7127436831725e-60
-2.9972715137166e-59
-3.1984016363014e-58
-3.296978545077e-57
-3.2836319816715e-56
-3.1602371070168e-55
-2.939517241712e-54
-2.6428995028186e-53
-2.2971197079528e-52
-1.9303139984937e-51
-1.5683740981599e-50
-1.2321902460385e-49
-9.3612605182184e-49
-6.8775604021055e-48
-4.8863664682666e-47
-3.357299872952e-46
-2.230696521484e-45
-1.4332555701094e-44
-8.9046891182761e-44
-5.349307530401e-43
-3.106877506681e-42
-1.7444348027161e-41
-9.4675520547798e-41
-4.9660730722939e-40
-2.5171703340904e-39
-1.2327049185528e-38
-5.8313160692839e-38
-2.6640323942092e-37
-1.1750941999719e-36
-5.0032333272865e-36
-2.0556431580121e-35
-8.1475390860731e-35
-3.1141395948135e-34
-1.1474172944892e-33
-4.0738228249466e-33
-1.3931318381131e-32
-4.5865785300501e-32
-1.4530264403278e-31
-4.4270155946585e-31
-1.29642761173e-30
-3.6468064679279e-30
-9.8471627745501e-30
-2.5505139514948e-29
-6.3317285800862e-29
-1.5053174990989e-28
0
0
0
0
0
8.2002446935907e-143
6.9070259877882e-140
2.9317707372398e-137
-1.1889478110265e-135
-2.1717571773002e-130
-1.6880160724862e-127
-6.5466860907209e-125
-1.6822022292676e-122
-3.218113762743e-120
-4.8868892140548e-118
-6.1350571070494e-116
-6.5487246513494e-114
-6.0671607130313e-112
-4.9560925865464e-110
-3.6142224542804e-108
-2.3767397084247e-106
-1.4211844008161e-104
-7.7813493317297e-103
-3.9244525263474e-101
-1.832523357537e-99
-7.9579928406908e-98
-3.226566655307e-96
-1.2256373543332e-94
-4.3752341392052e-93
-1.4718014883341e-91
-4.6770607926159e-90
-1.4071238105124e-88
-4.0159878783767e-87
-1.089268737749e-85
-2.812339720127e-84
-6.9220031535688e-83
-1.62633022071e-81
-3.6519659341862e-80
-7.8463128297063e-79
-1.6145881881418e-77
-3.1850202571591e-76
-6.0280719783553e-75
-1.0954433632125e-73
-1.9127015462437e-72
-3.2108841393263e-71
-5.1852887757804e-70
-8.0597493128451e-69
-1.2063697819653e-67
-1.7395712751824e-66
-2.4175945494983e-65
-3.2394124502982e-64
-4.1863867517098e-63
-5.219625310295e-62
-6.2804600111362e-61
-7.2947513834092e-60
-8.1809060613432e-59
-8.8605343386504e-58
-9.2698563330633e-57
-9.3695630198596e-56
-9.1510217524633e-55
-8.6374735025939e-54
-7.8800006552081e-53
-6.9492248670804e-52
-5.9245873590895e-51
-4.8834356936262e-50
-3.891934030052e-49
-2.9991498353146e-48
-2.2347898309832e-47
-1.6102274661327e-46
-1.1218867157866e-45
-7.5581269974777e-45
-4.9234306081112e-44
-3.1008998803889e-43
-1.8881845325367e-42
-1.1114780256383e-41
-6.3242990518403e-41
-3.4779748791697e-40
-1.8483421997834e-39
-9.4909841311763e-39
-4.7079892959967e-38
-2.2556334937067e-37
-1.0435534033068e-36
-4.6608859204697e-36
-2.0091594997606e-35
-8.3565391664064e-35
-3.352489812836e-34
-1.2968468496437e-33
-4.8353629421671e-33
-1.7370590657884e-32
-6.0097637625e-32
-2.0014975271677e-31
-6.4134169779876e-31
-1.976177183269e-30
-5.8520979673065e-30
-1.664464998194e-29
-4.5438336462343e-29
-1.1897061315057e-28
-2.9852930061422e-28
-7.1729555292236e-28
-1.6488386184059e-27
0
0
0
0
0
5.592812103393e-141
4.6730785315563e-138
1.9675077332203e-135
1.8322045474679e-134
-1.2239323766454e-128
-9.4473189588506e-126
-3.6346697149472e-123
-9.2621774390295e-121
-1.7568933943373e-118
-2.6448567194523e-116
-3.2909430669442e-114
-3.4808396926326e-112
-3.1946067947919e-110
-2.5842828007792e-108
-1.8656623272413e-106
-1.2140899818158e-104
-7.1810730245474e-103
-3.8874750765078e-101
-1.9375643550195e-99
-8.9365330028675e-98
-3.8311817988073e-96
-1.532630746596e-94
-5.7408664204861e-93
-2.0196745668564e-91
-6.6917205176047e-90
-2.0932170484861e-88
-6.1954617426875e-87
-1.7385504171584e-85
-4.633888445676e-84
-1.1750797252777e-82
-2.8392742800745e-81
-6.5458029137312e-80
-1.4417153286919e-78
-3.0370756663559e-77
-6.1255774098911e-76
-1.1840518471938e-74
-2.1953720237254e-73
-3.9075833594843e-72
-6.6817526393989e-71
-1.0983648715255e-69
-1.7367771878081e-68
-2.6431819190705e-67
-3.8736352250327e-66
-5.4691905206413e-65
-7.442627024669e-64
-9.7655837509107e-63
-1.2359295991825e-61
-1.5092241152939e-60
-1.778714459126e-59
-2.0237985121249e-58
-2.2235234649393e-57
-2.359521722396e-56
-2.4187926085059e-55
-2.3957469652914e-54
-2.2930702278726e-53
-2.12122067331e-52
-1.8966898189489e-51
-1.6394220989153e-50
-1.3699467811656e-49
-1.1067818725812e-48
-8.6454079657993e-48
-6.5295992653085e-47
-4.7683756061533e-46
-3.3669405808164e-45
-2.2986483550385e-44
-1.5172793791068e-43
-9.6825798198418e-43
-5.9733554396929e-42
-3.5621247128855e-41
-2.0531349192747e-40
-1.1436411312576e-39
-6.1555126416149e-39
-3.2008909801629e-38
-1.6077969577204e-37
-7.7993392673685e-37
-3.6530376539826e-36
-1.6516350032499e-35
-7.2064515856131e-35
-3.0335401057453e-34
-1.231576242749e-33
-4.8206657050372e-33
-1.8185512062958e-32
-6.6091042044645e-32
-2.3129713478199e-31
-7.7912289081867e-31
-2.5248271887357e-30
-7.8670631120024e-30
-2.355571861931e-29
-6.7734684421727e-29
-1.8692374852044e-28
-4.946997105594e-28
-1.2545948788504e-27
-3.0463825499103e-27
-7.0760338135954e-27
-1.570701345662e-26
0
0
0
0
0
3.2430493052746e-139
2.6878539944544e-136
1.1224394257595e-133
5.1735377149084e-132
-5.9845113139177e-127
-4.5871026251544e-124
-1.7505599637571e-121
-4.4237685372636e-119
-8.3199254058967e-117
-1.2416577505294e-114
-1.5313400577275e-112
-1.6051089892514e-110
-1.4595384629678e-108
-1.1695377393081e-106
-8.3612542449312e-105
-5.3868023897904e-103
-3.1533946717127e-101
-1.688970239583e-99
-8.3257289873813e-98
-3.796500843484e-96
-1.6085064414193e-94
-6.3565574395681e-93
-2.3510803319657e-91
-8.163598990751e-90
-2.6683798947434e-88
-8.2305559263387e-87
-2.4009695983927e-85
-6.6372866535629e-84
-1.7419362710957e-82
-4.3474350086553e-81
-1.0333611729942e-79
-2.342570195912e-78
-5.0711616617589e-77
-1.0495522637516e-75
-2.0789711124705e-74
-3.945198007092e-73
-7.1789127867899e-72
-1.2536600788926e-70
-2.1026382393812e-69
-3.3893644943617e-68
-5.2543767191225e-67
-7.8384536913702e-66
-1.1258521308966e-64
-1.5577206694872e-63
-2.077074076615e-62
-2.6702268017471e-61
-3.3108654345046e-60
-3.9607781390062e-59
-4.5729813616277e-58
-5.0970561916933e-57
-5.4859175183764e-56
-5.7027738789104e-55
-5.7268559345917e-54
-5.5566804892984e-53
-5.2101429710093e-52
-4.7214512221713e-51
-4.1356201691861e-50
-3.501741114153e-49
-2.8663968338541e-48
-2.268401979808e-47
-1.7356004947953e-46
-1.2839036186993e-45
-9.18263252536e-45
-6.3495908788431e-44
-4.2447500230359e-43
-2.7432340053948e-42
-1.7137476659043e-41
-1.0348214678907e-40
-6.0390966425776e-40
-3.4057444688482e-39
-1.8557655056515e-38
-9.7686421466674e-38
-4.9666768661232e-37
-2.4385400702645e-36
-1.1559223884926e-35
-5.2887762972556e-35
-2.335029966536e-34
-9.9451888023461e-34
-4.0848730199218e-33
-1.6174809754537e-32
-6.1720991238468e-32
-2.268740630893e-31
-8.0298342367232e-31
-2.7352379730047e-30
-8.9625589464183e-30
-2.8234644383817e-29
-8.5465979466218e-29
-2.4842371090412e-28
-6.929297126001e-28
-1.8533904775958e-27
-4.7499307704315e-27
-1.1654263975877e-26
-2.7350507964153e-26
-6.1334245052113e-26
-1.3129161634455e-25
0
0
0
0
0
1.6319851896e-137
1.3415850798022e-134
5.5563372524887e-132
4.1196477926558e-130
-2.5788893726469e-125
-1.9627811176635e-122
-7.4295164440056e-120
-1.8617176481108e-117
-3.4714562952673e-115
-5.1357554714697e-113
-6.2779982700606e-111
-6.5212822943111e-109
-5.8755489595755e-107
-4.6641249303638e-105
-3.3026436392758e-103
-2.1069755432611e-101
-1.221071536678e-99
-6.4730290554378e-98
-3.1572674421853e-96
-1.4241289472238e-94
-5.9666573372865e-93
-2.3309415944479e-91
-8.5198098876615e-90
-2.9224207512163e-88
-9.432945213891e-87
-2.8721181608921e-85
-8.267304472684e-84
-2.254235332731e-82
-5.8330696789126e-81
-1.4347545029398e-79
-3.3596900825768e-78
-7.5000810369585e-77
-1.5982052425144e-75
-3.254687561934e-74
-6.3411229554991e-73
-1.1831405081994e-71
-2.1160172880951e-70
-3.6306409493747e-69
-5.9809263346519e-68
-9.466469485627e-67
-1.4405582855071e-65
-2.1089326518878e-64
-2.9718587394987e-63
-4.0332179292862e-62
-5.2739869922833e-61
-6.6478074565185e-60
-8.0805600060753e-59
-9.4751086726515e-58
-1.0721314307834e-56
-1.1710095762143e-55
-1.2349114887409e-54
-1.2576972614211e-53
-1.237289758394e-52
-1.17598183379e-51
-1.0800201158789e-50
-9.5856814753377e-50
-8.2228447861709e-49
-6.8181679095986e-48
-5.4649876208159e-47
-4.2345480719712e-46
-3.1720001339492e-45
-2.2970526789224e-44
-1.6081087205605e-43
-1.0883119691597e-42
-7.1197321752174e-42
-4.5021167071624e-41
-2.7515356138202e-40
-1.6251486894897e-39
-9.2750582876538e-39
-5.114266877129e-38
-2.7240957583713e-37
-1.4013734239941e-36
-6.9612811174383e-36
-3.3383372651394e-35
-1.5451452161281e-34
-6.9006297379623e-34
-2.9727630503225e-33
-1.2349371680287e-32
-4.9452900624065e-32
-1.9082630051273e-31
-7.092651751855e-31
-2.5381295642015e-30
-8.740776872086e-30
-2.8953316228013e-29
-9.2198335857706e-29
-2.8207923248645e-28
-8.2864813218497e-28
-2.3357557549233e-27
-6.3128856152986e-27
-1.6346790185939e-26
-4.0520583187444e-26
-9.6064587166863e-26
-2.1760539003862e-25
-4.7047244705779e-25
-9.6974618987419e-25
0
0
0
0
0
7.2397740679162e-136
5.9026525050136e-133